V -t * -v 1.0a5 -a 0
A -t * -n 1 -p 0 -o 0x7fffffff -c 30 -a 1
A -t * -h 1 -m 1073741823 -s 0
c -t * -i 1 -n Blue
c -t * -i 2 -n Red
n -t * -a 0 -s 0 -S UP -v circle -c black -i black
n -t * -a 1 -s 1 -S UP -v circle -c black -i black
n -t * -a 2 -s 2 -S UP -v circle -c black -i black
n -t * -a 3 -s 3 -S UP -v circle -c black -i black
l -t * -s 2 -d 3 -S UP -r 10000000 -D 0.01 -c black -o right-up
l -t * -s 0 -d 1 -S UP -r 10000000 -D 0.01 -c black -o right-down
l -t * -s 1 -d 2 -S UP -r 10000000 -D 0.01 -c black -o center
q -t * -s 2 -d 1 -a 0.5
q -t * -s 1 -d 2 -a 0.5
+ -t 0.1 -s 1 -d 2 -p cbr -e 1000 -c 2 -i 0 -a 2 -x {1.0 2.0 0 ------- null}
- -t 0.1 -s 1 -d 2 -p cbr -e 1000 -c 2 -i 0 -a 2 -x {1.0 2.0 0 ------- null}
h -t 0.1 -s 1 -d 2 -p cbr -e 1000 -c 2 -i 0 -a 2 -x {1.0 2.0 -1 ------- null}
+ -t 0.100695652173913 -s 1 -d 2 -p cbr -e 1000 -c 2 -i 1 -a 2 -x {1.0 2.0 1 ------- null}
- -t 0.1008 -s 1 -d 2 -p cbr -e 1000 -c 2 -i 1 -a 2 -x {1.0 2.0 1 ------- null}
h -t 0.1008 -s 1 -d 2 -p cbr -e 1000 -c 2 -i 1 -a 2 -x {1.0 2.0 -1 ------- null}
+ -t 0.101391304347826 -s 1 -d 2 -p cbr -e 1000 -c 2 -i 2 -a 2 -x {1.0 2.0 2 ------- null}
- -t 0.1016 -s 1 -d 2 -p cbr -e 1000 -c 2 -i 2 -a 2 -x {1.0 2.0 2 ------- null}
h -t 0.1016 -s 1 -d 2 -p cbr -e 1000 -c 2 -i 2 -a 2 -x {1.0 2.0 -1 ------- null}
+ -t 0.102086956521739 -s 1 -d 2 -p cbr -e 1000 -c 2 -i 3 -a 2 -x {1.0 2.0 3 ------- null}
- -t 0.1024 -s 1 -d 2 -p cbr -e 1000 -c 2 -i 3 -a 2 -x {1.0 2.0 3 ------- null}
h -t 0.1024 -s 1 -d 2 -p cbr -e 1000 -c 2 -i 3 -a 2 -x {1.0 2.0 -1 ------- null}
+ -t 0.102782608695652 -s 1 -d 2 -p cbr -e 1000 -c 2 -i 4 -a 2 -x {1.0 2.0 4 ------- null}
- -t 0.1032 -s 1 -d 2 -p cbr -e 1000 -c 2 -i 4 -a 2 -x {1.0 2.0 4 ------- null}
h -t 0.1032 -s 1 -d 2 -p cbr -e 1000 -c 2 -i 4 -a 2 -x {1.0 2.0 -1 ------- null}
+ -t 0.103478260869565 -s 1 -d 2 -p cbr -e 1000 -c 2 -i 5 -a 2 -x {1.0 2.0 5 ------- null}
- -t 0.104 -s 1 -d 2 -p cbr -e 1000 -c 2 -i 5 -a 2 -x {1.0 2.0 5 ------- null}
h -t 0.104 -s 1 -d 2 -p cbr -e 1000 -c 2 -i 5 -a 2 -x {1.0 2.0 -1 ------- null}
+ -t 0.104173913043478 -s 1 -d 2 -p cbr -e 1000 -c 2 -i 6 -a 2 -x {1.0 2.0 6 ------- null}
- -t 0.1048 -s 1 -d 2 -p cbr -e 1000 -c 2 -i 6 -a 2 -x {1.0 2.0 6 ------- null}
h -t 0.1048 -s 1 -d 2 -p cbr -e 1000 -c 2 -i 6 -a 2 -x {1.0 2.0 -1 ------- null}
+ -t 0.104869565217391 -s 1 -d 2 -p cbr -e 1000 -c 2 -i 7 -a 2 -x {1.0 2.0 7 ------- null}
+ -t 0.105565217391304 -s 1 -d 2 -p cbr -e 1000 -c 2 -i 8 -a 2 -x {1.0 2.0 8 ------- null}
- -t 0.1056 -s 1 -d 2 -p cbr -e 1000 -c 2 -i 7 -a 2 -x {1.0 2.0 7 ------- null}
h -t 0.1056 -s 1 -d 2 -p cbr -e 1000 -c 2 -i 7 -a 2 -x {1.0 2.0 -1 ------- null}
+ -t 0.106260869565217 -s 1 -d 2 -p cbr -e 1000 -c 2 -i 9 -a 2 -x {1.0 2.0 9 ------- null}
- -t 0.1064 -s 1 -d 2 -p cbr -e 1000 -c 2 -i 8 -a 2 -x {1.0 2.0 8 ------- null}
h -t 0.1064 -s 1 -d 2 -p cbr -e 1000 -c 2 -i 8 -a 2 -x {1.0 2.0 -1 ------- null}
+ -t 0.10695652173913 -s 1 -d 2 -p cbr -e 1000 -c 2 -i 10 -a 2 -x {1.0 2.0 10 ------- null}
- -t 0.1072 -s 1 -d 2 -p cbr -e 1000 -c 2 -i 9 -a 2 -x {1.0 2.0 9 ------- null}
h -t 0.1072 -s 1 -d 2 -p cbr -e 1000 -c 2 -i 9 -a 2 -x {1.0 2.0 -1 ------- null}
+ -t 0.107652173913043 -s 1 -d 2 -p cbr -e 1000 -c 2 -i 11 -a 2 -x {1.0 2.0 11 ------- null}
- -t 0.108 -s 1 -d 2 -p cbr -e 1000 -c 2 -i 10 -a 2 -x {1.0 2.0 10 ------- null}
h -t 0.108 -s 1 -d 2 -p cbr -e 1000 -c 2 -i 10 -a 2 -x {1.0 2.0 -1 ------- null}
+ -t 0.108347826086957 -s 1 -d 2 -p cbr -e 1000 -c 2 -i 12 -a 2 -x {1.0 2.0 12 ------- null}
- -t 0.1088 -s 1 -d 2 -p cbr -e 1000 -c 2 -i 11 -a 2 -x {1.0 2.0 11 ------- null}
h -t 0.1088 -s 1 -d 2 -p cbr -e 1000 -c 2 -i 11 -a 2 -x {1.0 2.0 -1 ------- null}
+ -t 0.10904347826087 -s 1 -d 2 -p cbr -e 1000 -c 2 -i 13 -a 2 -x {1.0 2.0 13 ------- null}
- -t 0.1096 -s 1 -d 2 -p cbr -e 1000 -c 2 -i 12 -a 2 -x {1.0 2.0 12 ------- null}
h -t 0.1096 -s 1 -d 2 -p cbr -e 1000 -c 2 -i 12 -a 2 -x {1.0 2.0 -1 ------- null}
+ -t 0.109739130434783 -s 1 -d 2 -p cbr -e 1000 -c 2 -i 14 -a 2 -x {1.0 2.0 14 ------- null}
- -t 0.1104 -s 1 -d 2 -p cbr -e 1000 -c 2 -i 13 -a 2 -x {1.0 2.0 13 ------- null}
h -t 0.1104 -s 1 -d 2 -p cbr -e 1000 -c 2 -i 13 -a 2 -x {1.0 2.0 -1 ------- null}
+ -t 0.110434782608696 -s 1 -d 2 -p cbr -e 1000 -c 2 -i 15 -a 2 -x {1.0 2.0 15 ------- null}
r -t 0.1108 -s 1 -d 2 -p cbr -e 1000 -c 2 -i 0 -a 2 -x {1.0 2.0 0 ------- null}
+ -t 0.111130434782609 -s 1 -d 2 -p cbr -e 1000 -c 2 -i 16 -a 2 -x {1.0 2.0 16 ------- null}
- -t 0.1112 -s 1 -d 2 -p cbr -e 1000 -c 2 -i 14 -a 2 -x {1.0 2.0 14 ------- null}
h -t 0.1112 -s 1 -d 2 -p cbr -e 1000 -c 2 -i 14 -a 2 -x {1.0 2.0 -1 ------- null}
r -t 0.1116 -s 1 -d 2 -p cbr -e 1000 -c 2 -i 1 -a 2 -x {1.0 2.0 1 ------- null}
+ -t 0.111826086956522 -s 1 -d 2 -p cbr -e 1000 -c 2 -i 17 -a 2 -x {1.0 2.0 17 ------- null}
- -t 0.112 -s 1 -d 2 -p cbr -e 1000 -c 2 -i 15 -a 2 -x {1.0 2.0 15 ------- null}
h -t 0.112 -s 1 -d 2 -p cbr -e 1000 -c 2 -i 15 -a 2 -x {1.0 2.0 -1 ------- null}
r -t 0.1124 -s 1 -d 2 -p cbr -e 1000 -c 2 -i 2 -a 2 -x {1.0 2.0 2 ------- null}
+ -t 0.112521739130435 -s 1 -d 2 -p cbr -e 1000 -c 2 -i 18 -a 2 -x {1.0 2.0 18 ------- null}
- -t 0.1128 -s 1 -d 2 -p cbr -e 1000 -c 2 -i 16 -a 2 -x {1.0 2.0 16 ------- null}
h -t 0.1128 -s 1 -d 2 -p cbr -e 1000 -c 2 -i 16 -a 2 -x {1.0 2.0 -1 ------- null}
r -t 0.1132 -s 1 -d 2 -p cbr -e 1000 -c 2 -i 3 -a 2 -x {1.0 2.0 3 ------- null}
+ -t 0.113217391304348 -s 1 -d 2 -p cbr -e 1000 -c 2 -i 19 -a 2 -x {1.0 2.0 19 ------- null}
- -t 0.1136 -s 1 -d 2 -p cbr -e 1000 -c 2 -i 17 -a 2 -x {1.0 2.0 17 ------- null}
h -t 0.1136 -s 1 -d 2 -p cbr -e 1000 -c 2 -i 17 -a 2 -x {1.0 2.0 -1 ------- null}
+ -t 0.113913043478261 -s 1 -d 2 -p cbr -e 1000 -c 2 -i 20 -a 2 -x {1.0 2.0 20 ------- null}
r -t 0.114 -s 1 -d 2 -p cbr -e 1000 -c 2 -i 4 -a 2 -x {1.0 2.0 4 ------- null}
- -t 0.1144 -s 1 -d 2 -p cbr -e 1000 -c 2 -i 18 -a 2 -x {1.0 2.0 18 ------- null}
h -t 0.1144 -s 1 -d 2 -p cbr -e 1000 -c 2 -i 18 -a 2 -x {1.0 2.0 -1 ------- null}
+ -t 0.114608695652174 -s 1 -d 2 -p cbr -e 1000 -c 2 -i 21 -a 2 -x {1.0 2.0 21 ------- null}
r -t 0.1148 -s 1 -d 2 -p cbr -e 1000 -c 2 -i 5 -a 2 -x {1.0 2.0 5 ------- null}
- -t 0.1152 -s 1 -d 2 -p cbr -e 1000 -c 2 -i 19 -a 2 -x {1.0 2.0 19 ------- null}
h -t 0.1152 -s 1 -d 2 -p cbr -e 1000 -c 2 -i 19 -a 2 -x {1.0 2.0 -1 ------- null}
+ -t 0.115304347826087 -s 1 -d 2 -p cbr -e 1000 -c 2 -i 22 -a 2 -x {1.0 2.0 22 ------- null}
r -t 0.1156 -s 1 -d 2 -p cbr -e 1000 -c 2 -i 6 -a 2 -x {1.0 2.0 6 ------- null}
- -t 0.116 -s 1 -d 2 -p cbr -e 1000 -c 2 -i 20 -a 2 -x {1.0 2.0 20 ------- null}
h -t 0.116 -s 1 -d 2 -p cbr -e 1000 -c 2 -i 20 -a 2 -x {1.0 2.0 -1 ------- null}
+ -t 0.116 -s 1 -d 2 -p cbr -e 1000 -c 2 -i 23 -a 2 -x {1.0 2.0 23 ------- null}
r -t 0.1164 -s 1 -d 2 -p cbr -e 1000 -c 2 -i 7 -a 2 -x {1.0 2.0 7 ------- null}
+ -t 0.116695652173913 -s 1 -d 2 -p cbr -e 1000 -c 2 -i 24 -a 2 -x {1.0 2.0 24 ------- null}
- -t 0.1168 -s 1 -d 2 -p cbr -e 1000 -c 2 -i 21 -a 2 -x {1.0 2.0 21 ------- null}
h -t 0.1168 -s 1 -d 2 -p cbr -e 1000 -c 2 -i 21 -a 2 -x {1.0 2.0 -1 ------- null}
r -t 0.1172 -s 1 -d 2 -p cbr -e 1000 -c 2 -i 8 -a 2 -x {1.0 2.0 8 ------- null}
+ -t 0.117391304347826 -s 1 -d 2 -p cbr -e 1000 -c 2 -i 25 -a 2 -x {1.0 2.0 25 ------- null}
- -t 0.1176 -s 1 -d 2 -p cbr -e 1000 -c 2 -i 22 -a 2 -x {1.0 2.0 22 ------- null}
h -t 0.1176 -s 1 -d 2 -p cbr -e 1000 -c 2 -i 22 -a 2 -x {1.0 2.0 -1 ------- null}
r -t 0.118 -s 1 -d 2 -p cbr -e 1000 -c 2 -i 9 -a 2 -x {1.0 2.0 9 ------- null}
+ -t 0.118086956521739 -s 1 -d 2 -p cbr -e 1000 -c 2 -i 26 -a 2 -x {1.0 2.0 26 ------- null}
- -t 0.1184 -s 1 -d 2 -p cbr -e 1000 -c 2 -i 23 -a 2 -x {1.0 2.0 23 ------- null}
h -t 0.1184 -s 1 -d 2 -p cbr -e 1000 -c 2 -i 23 -a 2 -x {1.0 2.0 -1 ------- null}
+ -t 0.118782608695652 -s 1 -d 2 -p cbr -e 1000 -c 2 -i 27 -a 2 -x {1.0 2.0 27 ------- null}
r -t 0.1188 -s 1 -d 2 -p cbr -e 1000 -c 2 -i 10 -a 2 -x {1.0 2.0 10 ------- null}
- -t 0.1192 -s 1 -d 2 -p cbr -e 1000 -c 2 -i 24 -a 2 -x {1.0 2.0 24 ------- null}
h -t 0.1192 -s 1 -d 2 -p cbr -e 1000 -c 2 -i 24 -a 2 -x {1.0 2.0 -1 ------- null}
+ -t 0.119478260869565 -s 1 -d 2 -p cbr -e 1000 -c 2 -i 28 -a 2 -x {1.0 2.0 28 ------- null}
r -t 0.1196 -s 1 -d 2 -p cbr -e 1000 -c 2 -i 11 -a 2 -x {1.0 2.0 11 ------- null}
- -t 0.12 -s 1 -d 2 -p cbr -e 1000 -c 2 -i 25 -a 2 -x {1.0 2.0 25 ------- null}
h -t 0.12 -s 1 -d 2 -p cbr -e 1000 -c 2 -i 25 -a 2 -x {1.0 2.0 -1 ------- null}
+ -t 0.120173913043478 -s 1 -d 2 -p cbr -e 1000 -c 2 -i 29 -a 2 -x {1.0 2.0 29 ------- null}
r -t 0.1204 -s 1 -d 2 -p cbr -e 1000 -c 2 -i 12 -a 2 -x {1.0 2.0 12 ------- null}
- -t 0.1208 -s 1 -d 2 -p cbr -e 1000 -c 2 -i 26 -a 2 -x {1.0 2.0 26 ------- null}
h -t 0.1208 -s 1 -d 2 -p cbr -e 1000 -c 2 -i 26 -a 2 -x {1.0 2.0 -1 ------- null}
+ -t 0.120869565217391 -s 1 -d 2 -p cbr -e 1000 -c 2 -i 30 -a 2 -x {1.0 2.0 30 ------- null}
r -t 0.1212 -s 1 -d 2 -p cbr -e 1000 -c 2 -i 13 -a 2 -x {1.0 2.0 13 ------- null}
+ -t 0.121565217391304 -s 1 -d 2 -p cbr -e 1000 -c 2 -i 31 -a 2 -x {1.0 2.0 31 ------- null}
- -t 0.1216 -s 1 -d 2 -p cbr -e 1000 -c 2 -i 27 -a 2 -x {1.0 2.0 27 ------- null}
h -t 0.1216 -s 1 -d 2 -p cbr -e 1000 -c 2 -i 27 -a 2 -x {1.0 2.0 -1 ------- null}
r -t 0.122 -s 1 -d 2 -p cbr -e 1000 -c 2 -i 14 -a 2 -x {1.0 2.0 14 ------- null}
+ -t 0.122260869565217 -s 1 -d 2 -p cbr -e 1000 -c 2 -i 32 -a 2 -x {1.0 2.0 32 ------- null}
- -t 0.1224 -s 1 -d 2 -p cbr -e 1000 -c 2 -i 28 -a 2 -x {1.0 2.0 28 ------- null}
h -t 0.1224 -s 1 -d 2 -p cbr -e 1000 -c 2 -i 28 -a 2 -x {1.0 2.0 -1 ------- null}
r -t 0.1228 -s 1 -d 2 -p cbr -e 1000 -c 2 -i 15 -a 2 -x {1.0 2.0 15 ------- null}
+ -t 0.12295652173913 -s 1 -d 2 -p cbr -e 1000 -c 2 -i 33 -a 2 -x {1.0 2.0 33 ------- null}
- -t 0.1232 -s 1 -d 2 -p cbr -e 1000 -c 2 -i 29 -a 2 -x {1.0 2.0 29 ------- null}
h -t 0.1232 -s 1 -d 2 -p cbr -e 1000 -c 2 -i 29 -a 2 -x {1.0 2.0 -1 ------- null}
r -t 0.1236 -s 1 -d 2 -p cbr -e 1000 -c 2 -i 16 -a 2 -x {1.0 2.0 16 ------- null}
+ -t 0.123652173913043 -s 1 -d 2 -p cbr -e 1000 -c 2 -i 34 -a 2 -x {1.0 2.0 34 ------- null}
- -t 0.124 -s 1 -d 2 -p cbr -e 1000 -c 2 -i 30 -a 2 -x {1.0 2.0 30 ------- null}
h -t 0.124 -s 1 -d 2 -p cbr -e 1000 -c 2 -i 30 -a 2 -x {1.0 2.0 -1 ------- null}
+ -t 0.124347826086956 -s 1 -d 2 -p cbr -e 1000 -c 2 -i 35 -a 2 -x {1.0 2.0 35 ------- null}
r -t 0.1244 -s 1 -d 2 -p cbr -e 1000 -c 2 -i 17 -a 2 -x {1.0 2.0 17 ------- null}
- -t 0.1248 -s 1 -d 2 -p cbr -e 1000 -c 2 -i 31 -a 2 -x {1.0 2.0 31 ------- null}
h -t 0.1248 -s 1 -d 2 -p cbr -e 1000 -c 2 -i 31 -a 2 -x {1.0 2.0 -1 ------- null}
+ -t 0.12504347826087 -s 1 -d 2 -p cbr -e 1000 -c 2 -i 36 -a 2 -x {1.0 2.0 36 ------- null}
r -t 0.1252 -s 1 -d 2 -p cbr -e 1000 -c 2 -i 18 -a 2 -x {1.0 2.0 18 ------- null}
- -t 0.1256 -s 1 -d 2 -p cbr -e 1000 -c 2 -i 32 -a 2 -x {1.0 2.0 32 ------- null}
h -t 0.1256 -s 1 -d 2 -p cbr -e 1000 -c 2 -i 32 -a 2 -x {1.0 2.0 -1 ------- null}
+ -t 0.125739130434783 -s 1 -d 2 -p cbr -e 1000 -c 2 -i 37 -a 2 -x {1.0 2.0 37 ------- null}
r -t 0.126 -s 1 -d 2 -p cbr -e 1000 -c 2 -i 19 -a 2 -x {1.0 2.0 19 ------- null}
- -t 0.1264 -s 1 -d 2 -p cbr -e 1000 -c 2 -i 33 -a 2 -x {1.0 2.0 33 ------- null}
h -t 0.1264 -s 1 -d 2 -p cbr -e 1000 -c 2 -i 33 -a 2 -x {1.0 2.0 -1 ------- null}
+ -t 0.126434782608696 -s 1 -d 2 -p cbr -e 1000 -c 2 -i 38 -a 2 -x {1.0 2.0 38 ------- null}
r -t 0.1268 -s 1 -d 2 -p cbr -e 1000 -c 2 -i 20 -a 2 -x {1.0 2.0 20 ------- null}
+ -t 0.127130434782609 -s 1 -d 2 -p cbr -e 1000 -c 2 -i 39 -a 2 -x {1.0 2.0 39 ------- null}
- -t 0.1272 -s 1 -d 2 -p cbr -e 1000 -c 2 -i 34 -a 2 -x {1.0 2.0 34 ------- null}
h -t 0.1272 -s 1 -d 2 -p cbr -e 1000 -c 2 -i 34 -a 2 -x {1.0 2.0 -1 ------- null}
r -t 0.1276 -s 1 -d 2 -p cbr -e 1000 -c 2 -i 21 -a 2 -x {1.0 2.0 21 ------- null}
+ -t 0.127826086956522 -s 1 -d 2 -p cbr -e 1000 -c 2 -i 40 -a 2 -x {1.0 2.0 40 ------- null}
- -t 0.128 -s 1 -d 2 -p cbr -e 1000 -c 2 -i 35 -a 2 -x {1.0 2.0 35 ------- null}
h -t 0.128 -s 1 -d 2 -p cbr -e 1000 -c 2 -i 35 -a 2 -x {1.0 2.0 -1 ------- null}
r -t 0.1284 -s 1 -d 2 -p cbr -e 1000 -c 2 -i 22 -a 2 -x {1.0 2.0 22 ------- null}
+ -t 0.128521739130435 -s 1 -d 2 -p cbr -e 1000 -c 2 -i 41 -a 2 -x {1.0 2.0 41 ------- null}
- -t 0.1288 -s 1 -d 2 -p cbr -e 1000 -c 2 -i 36 -a 2 -x {1.0 2.0 36 ------- null}
h -t 0.1288 -s 1 -d 2 -p cbr -e 1000 -c 2 -i 36 -a 2 -x {1.0 2.0 -1 ------- null}
r -t 0.1292 -s 1 -d 2 -p cbr -e 1000 -c 2 -i 23 -a 2 -x {1.0 2.0 23 ------- null}
+ -t 0.129217391304348 -s 1 -d 2 -p cbr -e 1000 -c 2 -i 42 -a 2 -x {1.0 2.0 42 ------- null}
- -t 0.1296 -s 1 -d 2 -p cbr -e 1000 -c 2 -i 37 -a 2 -x {1.0 2.0 37 ------- null}
h -t 0.1296 -s 1 -d 2 -p cbr -e 1000 -c 2 -i 37 -a 2 -x {1.0 2.0 -1 ------- null}
+ -t 0.129913043478261 -s 1 -d 2 -p cbr -e 1000 -c 2 -i 43 -a 2 -x {1.0 2.0 43 ------- null}
r -t 0.13 -s 1 -d 2 -p cbr -e 1000 -c 2 -i 24 -a 2 -x {1.0 2.0 24 ------- null}
- -t 0.1304 -s 1 -d 2 -p cbr -e 1000 -c 2 -i 38 -a 2 -x {1.0 2.0 38 ------- null}
h -t 0.1304 -s 1 -d 2 -p cbr -e 1000 -c 2 -i 38 -a 2 -x {1.0 2.0 -1 ------- null}
+ -t 0.130608695652174 -s 1 -d 2 -p cbr -e 1000 -c 2 -i 44 -a 2 -x {1.0 2.0 44 ------- null}
r -t 0.1308 -s 1 -d 2 -p cbr -e 1000 -c 2 -i 25 -a 2 -x {1.0 2.0 25 ------- null}
- -t 0.1312 -s 1 -d 2 -p cbr -e 1000 -c 2 -i 39 -a 2 -x {1.0 2.0 39 ------- null}
h -t 0.1312 -s 1 -d 2 -p cbr -e 1000 -c 2 -i 39 -a 2 -x {1.0 2.0 -1 ------- null}
+ -t 0.131304347826087 -s 1 -d 2 -p cbr -e 1000 -c 2 -i 45 -a 2 -x {1.0 2.0 45 ------- null}
r -t 0.1316 -s 1 -d 2 -p cbr -e 1000 -c 2 -i 26 -a 2 -x {1.0 2.0 26 ------- null}
- -t 0.132 -s 1 -d 2 -p cbr -e 1000 -c 2 -i 40 -a 2 -x {1.0 2.0 40 ------- null}
h -t 0.132 -s 1 -d 2 -p cbr -e 1000 -c 2 -i 40 -a 2 -x {1.0 2.0 -1 ------- null}
+ -t 0.132 -s 1 -d 2 -p cbr -e 1000 -c 2 -i 46 -a 2 -x {1.0 2.0 46 ------- null}
r -t 0.1324 -s 1 -d 2 -p cbr -e 1000 -c 2 -i 27 -a 2 -x {1.0 2.0 27 ------- null}
+ -t 0.132695652173913 -s 1 -d 2 -p cbr -e 1000 -c 2 -i 47 -a 2 -x {1.0 2.0 47 ------- null}
- -t 0.1328 -s 1 -d 2 -p cbr -e 1000 -c 2 -i 41 -a 2 -x {1.0 2.0 41 ------- null}
h -t 0.1328 -s 1 -d 2 -p cbr -e 1000 -c 2 -i 41 -a 2 -x {1.0 2.0 -1 ------- null}
r -t 0.1332 -s 1 -d 2 -p cbr -e 1000 -c 2 -i 28 -a 2 -x {1.0 2.0 28 ------- null}
+ -t 0.133391304347826 -s 1 -d 2 -p cbr -e 1000 -c 2 -i 48 -a 2 -x {1.0 2.0 48 ------- null}
- -t 0.1336 -s 1 -d 2 -p cbr -e 1000 -c 2 -i 42 -a 2 -x {1.0 2.0 42 ------- null}
h -t 0.1336 -s 1 -d 2 -p cbr -e 1000 -c 2 -i 42 -a 2 -x {1.0 2.0 -1 ------- null}
r -t 0.134 -s 1 -d 2 -p cbr -e 1000 -c 2 -i 29 -a 2 -x {1.0 2.0 29 ------- null}
+ -t 0.134086956521739 -s 1 -d 2 -p cbr -e 1000 -c 2 -i 49 -a 2 -x {1.0 2.0 49 ------- null}
- -t 0.1344 -s 1 -d 2 -p cbr -e 1000 -c 2 -i 43 -a 2 -x {1.0 2.0 43 ------- null}
h -t 0.1344 -s 1 -d 2 -p cbr -e 1000 -c 2 -i 43 -a 2 -x {1.0 2.0 -1 ------- null}
+ -t 0.134782608695652 -s 1 -d 2 -p cbr -e 1000 -c 2 -i 50 -a 2 -x {1.0 2.0 50 ------- null}
r -t 0.1348 -s 1 -d 2 -p cbr -e 1000 -c 2 -i 30 -a 2 -x {1.0 2.0 30 ------- null}
- -t 0.1352 -s 1 -d 2 -p cbr -e 1000 -c 2 -i 44 -a 2 -x {1.0 2.0 44 ------- null}
h -t 0.1352 -s 1 -d 2 -p cbr -e 1000 -c 2 -i 44 -a 2 -x {1.0 2.0 -1 ------- null}
+ -t 0.135478260869565 -s 1 -d 2 -p cbr -e 1000 -c 2 -i 51 -a 2 -x {1.0 2.0 51 ------- null}
r -t 0.1356 -s 1 -d 2 -p cbr -e 1000 -c 2 -i 31 -a 2 -x {1.0 2.0 31 ------- null}
- -t 0.136 -s 1 -d 2 -p cbr -e 1000 -c 2 -i 45 -a 2 -x {1.0 2.0 45 ------- null}
h -t 0.136 -s 1 -d 2 -p cbr -e 1000 -c 2 -i 45 -a 2 -x {1.0 2.0 -1 ------- null}
+ -t 0.136173913043478 -s 1 -d 2 -p cbr -e 1000 -c 2 -i 52 -a 2 -x {1.0 2.0 52 ------- null}
r -t 0.1364 -s 1 -d 2 -p cbr -e 1000 -c 2 -i 32 -a 2 -x {1.0 2.0 32 ------- null}
- -t 0.1368 -s 1 -d 2 -p cbr -e 1000 -c 2 -i 46 -a 2 -x {1.0 2.0 46 ------- null}
h -t 0.1368 -s 1 -d 2 -p cbr -e 1000 -c 2 -i 46 -a 2 -x {1.0 2.0 -1 ------- null}
+ -t 0.136869565217391 -s 1 -d 2 -p cbr -e 1000 -c 2 -i 53 -a 2 -x {1.0 2.0 53 ------- null}
r -t 0.1372 -s 1 -d 2 -p cbr -e 1000 -c 2 -i 33 -a 2 -x {1.0 2.0 33 ------- null}
+ -t 0.137565217391304 -s 1 -d 2 -p cbr -e 1000 -c 2 -i 54 -a 2 -x {1.0 2.0 54 ------- null}
- -t 0.1376 -s 1 -d 2 -p cbr -e 1000 -c 2 -i 47 -a 2 -x {1.0 2.0 47 ------- null}
h -t 0.1376 -s 1 -d 2 -p cbr -e 1000 -c 2 -i 47 -a 2 -x {1.0 2.0 -1 ------- null}
r -t 0.138 -s 1 -d 2 -p cbr -e 1000 -c 2 -i 34 -a 2 -x {1.0 2.0 34 ------- null}
+ -t 0.138260869565217 -s 1 -d 2 -p cbr -e 1000 -c 2 -i 55 -a 2 -x {1.0 2.0 55 ------- null}
- -t 0.1384 -s 1 -d 2 -p cbr -e 1000 -c 2 -i 48 -a 2 -x {1.0 2.0 48 ------- null}
h -t 0.1384 -s 1 -d 2 -p cbr -e 1000 -c 2 -i 48 -a 2 -x {1.0 2.0 -1 ------- null}
r -t 0.1388 -s 1 -d 2 -p cbr -e 1000 -c 2 -i 35 -a 2 -x {1.0 2.0 35 ------- null}
+ -t 0.13895652173913 -s 1 -d 2 -p cbr -e 1000 -c 2 -i 56 -a 2 -x {1.0 2.0 56 ------- null}
- -t 0.1392 -s 1 -d 2 -p cbr -e 1000 -c 2 -i 49 -a 2 -x {1.0 2.0 49 ------- null}
h -t 0.1392 -s 1 -d 2 -p cbr -e 1000 -c 2 -i 49 -a 2 -x {1.0 2.0 -1 ------- null}
r -t 0.1396 -s 1 -d 2 -p cbr -e 1000 -c 2 -i 36 -a 2 -x {1.0 2.0 36 ------- null}
+ -t 0.139652173913043 -s 1 -d 2 -p cbr -e 1000 -c 2 -i 57 -a 2 -x {1.0 2.0 57 ------- null}
- -t 0.14 -s 1 -d 2 -p cbr -e 1000 -c 2 -i 50 -a 2 -x {1.0 2.0 50 ------- null}
h -t 0.14 -s 1 -d 2 -p cbr -e 1000 -c 2 -i 50 -a 2 -x {1.0 2.0 -1 ------- null}
+ -t 0.140347826086956 -s 1 -d 2 -p cbr -e 1000 -c 2 -i 58 -a 2 -x {1.0 2.0 58 ------- null}
r -t 0.1404 -s 1 -d 2 -p cbr -e 1000 -c 2 -i 37 -a 2 -x {1.0 2.0 37 ------- null}
- -t 0.1408 -s 1 -d 2 -p cbr -e 1000 -c 2 -i 51 -a 2 -x {1.0 2.0 51 ------- null}
h -t 0.1408 -s 1 -d 2 -p cbr -e 1000 -c 2 -i 51 -a 2 -x {1.0 2.0 -1 ------- null}
+ -t 0.141043478260869 -s 1 -d 2 -p cbr -e 1000 -c 2 -i 59 -a 2 -x {1.0 2.0 59 ------- null}
r -t 0.1412 -s 1 -d 2 -p cbr -e 1000 -c 2 -i 38 -a 2 -x {1.0 2.0 38 ------- null}
- -t 0.1416 -s 1 -d 2 -p cbr -e 1000 -c 2 -i 52 -a 2 -x {1.0 2.0 52 ------- null}
h -t 0.1416 -s 1 -d 2 -p cbr -e 1000 -c 2 -i 52 -a 2 -x {1.0 2.0 -1 ------- null}
+ -t 0.141739130434783 -s 1 -d 2 -p cbr -e 1000 -c 2 -i 60 -a 2 -x {1.0 2.0 60 ------- null}
r -t 0.142 -s 1 -d 2 -p cbr -e 1000 -c 2 -i 39 -a 2 -x {1.0 2.0 39 ------- null}
- -t 0.1424 -s 1 -d 2 -p cbr -e 1000 -c 2 -i 53 -a 2 -x {1.0 2.0 53 ------- null}
h -t 0.1424 -s 1 -d 2 -p cbr -e 1000 -c 2 -i 53 -a 2 -x {1.0 2.0 -1 ------- null}
+ -t 0.142434782608696 -s 1 -d 2 -p cbr -e 1000 -c 2 -i 61 -a 2 -x {1.0 2.0 61 ------- null}
r -t 0.1428 -s 1 -d 2 -p cbr -e 1000 -c 2 -i 40 -a 2 -x {1.0 2.0 40 ------- null}
+ -t 0.143130434782609 -s 1 -d 2 -p cbr -e 1000 -c 2 -i 62 -a 2 -x {1.0 2.0 62 ------- null}
- -t 0.1432 -s 1 -d 2 -p cbr -e 1000 -c 2 -i 54 -a 2 -x {1.0 2.0 54 ------- null}
h -t 0.1432 -s 1 -d 2 -p cbr -e 1000 -c 2 -i 54 -a 2 -x {1.0 2.0 -1 ------- null}
r -t 0.1436 -s 1 -d 2 -p cbr -e 1000 -c 2 -i 41 -a 2 -x {1.0 2.0 41 ------- null}
+ -t 0.143826086956522 -s 1 -d 2 -p cbr -e 1000 -c 2 -i 63 -a 2 -x {1.0 2.0 63 ------- null}
- -t 0.144 -s 1 -d 2 -p cbr -e 1000 -c 2 -i 55 -a 2 -x {1.0 2.0 55 ------- null}
h -t 0.144 -s 1 -d 2 -p cbr -e 1000 -c 2 -i 55 -a 2 -x {1.0 2.0 -1 ------- null}
r -t 0.1444 -s 1 -d 2 -p cbr -e 1000 -c 2 -i 42 -a 2 -x {1.0 2.0 42 ------- null}
+ -t 0.144521739130435 -s 1 -d 2 -p cbr -e 1000 -c 2 -i 64 -a 2 -x {1.0 2.0 64 ------- null}
- -t 0.1448 -s 1 -d 2 -p cbr -e 1000 -c 2 -i 56 -a 2 -x {1.0 2.0 56 ------- null}
h -t 0.1448 -s 1 -d 2 -p cbr -e 1000 -c 2 -i 56 -a 2 -x {1.0 2.0 -1 ------- null}
r -t 0.1452 -s 1 -d 2 -p cbr -e 1000 -c 2 -i 43 -a 2 -x {1.0 2.0 43 ------- null}
+ -t 0.145217391304348 -s 1 -d 2 -p cbr -e 1000 -c 2 -i 65 -a 2 -x {1.0 2.0 65 ------- null}
- -t 0.1456 -s 1 -d 2 -p cbr -e 1000 -c 2 -i 57 -a 2 -x {1.0 2.0 57 ------- null}
h -t 0.1456 -s 1 -d 2 -p cbr -e 1000 -c 2 -i 57 -a 2 -x {1.0 2.0 -1 ------- null}
+ -t 0.145913043478261 -s 1 -d 2 -p cbr -e 1000 -c 2 -i 66 -a 2 -x {1.0 2.0 66 ------- null}
r -t 0.146 -s 1 -d 2 -p cbr -e 1000 -c 2 -i 44 -a 2 -x {1.0 2.0 44 ------- null}
- -t 0.1464 -s 1 -d 2 -p cbr -e 1000 -c 2 -i 58 -a 2 -x {1.0 2.0 58 ------- null}
h -t 0.1464 -s 1 -d 2 -p cbr -e 1000 -c 2 -i 58 -a 2 -x {1.0 2.0 -1 ------- null}
+ -t 0.146608695652174 -s 1 -d 2 -p cbr -e 1000 -c 2 -i 67 -a 2 -x {1.0 2.0 67 ------- null}
r -t 0.1468 -s 1 -d 2 -p cbr -e 1000 -c 2 -i 45 -a 2 -x {1.0 2.0 45 ------- null}
- -t 0.1472 -s 1 -d 2 -p cbr -e 1000 -c 2 -i 59 -a 2 -x {1.0 2.0 59 ------- null}
h -t 0.1472 -s 1 -d 2 -p cbr -e 1000 -c 2 -i 59 -a 2 -x {1.0 2.0 -1 ------- null}
+ -t 0.147304347826087 -s 1 -d 2 -p cbr -e 1000 -c 2 -i 68 -a 2 -x {1.0 2.0 68 ------- null}
r -t 0.1476 -s 1 -d 2 -p cbr -e 1000 -c 2 -i 46 -a 2 -x {1.0 2.0 46 ------- null}
- -t 0.148 -s 1 -d 2 -p cbr -e 1000 -c 2 -i 60 -a 2 -x {1.0 2.0 60 ------- null}
h -t 0.148 -s 1 -d 2 -p cbr -e 1000 -c 2 -i 60 -a 2 -x {1.0 2.0 -1 ------- null}
+ -t 0.148 -s 1 -d 2 -p cbr -e 1000 -c 2 -i 69 -a 2 -x {1.0 2.0 69 ------- null}
r -t 0.1484 -s 1 -d 2 -p cbr -e 1000 -c 2 -i 47 -a 2 -x {1.0 2.0 47 ------- null}
+ -t 0.148695652173913 -s 1 -d 2 -p cbr -e 1000 -c 2 -i 70 -a 2 -x {1.0 2.0 70 ------- null}
d -t 0.148695652173913 -s 1 -d 2 -p cbr -e 1000 -c 2 -i 70 -a 2 -x {1.0 2.0 70 ------- null}
- -t 0.1488 -s 1 -d 2 -p cbr -e 1000 -c 2 -i 61 -a 2 -x {1.0 2.0 61 ------- null}
h -t 0.1488 -s 1 -d 2 -p cbr -e 1000 -c 2 -i 61 -a 2 -x {1.0 2.0 -1 ------- null}
r -t 0.1492 -s 1 -d 2 -p cbr -e 1000 -c 2 -i 48 -a 2 -x {1.0 2.0 48 ------- null}
+ -t 0.149391304347826 -s 1 -d 2 -p cbr -e 1000 -c 2 -i 71 -a 2 -x {1.0 2.0 71 ------- null}
- -t 0.1496 -s 1 -d 2 -p cbr -e 1000 -c 2 -i 62 -a 2 -x {1.0 2.0 62 ------- null}
h -t 0.1496 -s 1 -d 2 -p cbr -e 1000 -c 2 -i 62 -a 2 -x {1.0 2.0 -1 ------- null}
r -t 0.15 -s 1 -d 2 -p cbr -e 1000 -c 2 -i 49 -a 2 -x {1.0 2.0 49 ------- null}
+ -t 0.150086956521739 -s 1 -d 2 -p cbr -e 1000 -c 2 -i 72 -a 2 -x {1.0 2.0 72 ------- null}
- -t 0.1504 -s 1 -d 2 -p cbr -e 1000 -c 2 -i 63 -a 2 -x {1.0 2.0 63 ------- null}
h -t 0.1504 -s 1 -d 2 -p cbr -e 1000 -c 2 -i 63 -a 2 -x {1.0 2.0 -1 ------- null}
+ -t 0.150782608695652 -s 1 -d 2 -p cbr -e 1000 -c 2 -i 73 -a 2 -x {1.0 2.0 73 ------- null}
r -t 0.1508 -s 1 -d 2 -p cbr -e 1000 -c 2 -i 50 -a 2 -x {1.0 2.0 50 ------- null}
- -t 0.1512 -s 1 -d 2 -p cbr -e 1000 -c 2 -i 64 -a 2 -x {1.0 2.0 64 ------- null}
h -t 0.1512 -s 1 -d 2 -p cbr -e 1000 -c 2 -i 64 -a 2 -x {1.0 2.0 -1 ------- null}
+ -t 0.151478260869565 -s 1 -d 2 -p cbr -e 1000 -c 2 -i 74 -a 2 -x {1.0 2.0 74 ------- null}
r -t 0.1516 -s 1 -d 2 -p cbr -e 1000 -c 2 -i 51 -a 2 -x {1.0 2.0 51 ------- null}
- -t 0.152 -s 1 -d 2 -p cbr -e 1000 -c 2 -i 65 -a 2 -x {1.0 2.0 65 ------- null}
h -t 0.152 -s 1 -d 2 -p cbr -e 1000 -c 2 -i 65 -a 2 -x {1.0 2.0 -1 ------- null}
+ -t 0.152173913043478 -s 1 -d 2 -p cbr -e 1000 -c 2 -i 75 -a 2 -x {1.0 2.0 75 ------- null}
r -t 0.1524 -s 1 -d 2 -p cbr -e 1000 -c 2 -i 52 -a 2 -x {1.0 2.0 52 ------- null}
- -t 0.1528 -s 1 -d 2 -p cbr -e 1000 -c 2 -i 66 -a 2 -x {1.0 2.0 66 ------- null}
h -t 0.1528 -s 1 -d 2 -p cbr -e 1000 -c 2 -i 66 -a 2 -x {1.0 2.0 -1 ------- null}
+ -t 0.152869565217391 -s 1 -d 2 -p cbr -e 1000 -c 2 -i 76 -a 2 -x {1.0 2.0 76 ------- null}
r -t 0.1532 -s 1 -d 2 -p cbr -e 1000 -c 2 -i 53 -a 2 -x {1.0 2.0 53 ------- null}
+ -t 0.153565217391304 -s 1 -d 2 -p cbr -e 1000 -c 2 -i 77 -a 2 -x {1.0 2.0 77 ------- null}
d -t 0.153565217391304 -s 1 -d 2 -p cbr -e 1000 -c 2 -i 77 -a 2 -x {1.0 2.0 77 ------- null}
- -t 0.1536 -s 1 -d 2 -p cbr -e 1000 -c 2 -i 67 -a 2 -x {1.0 2.0 67 ------- null}
h -t 0.1536 -s 1 -d 2 -p cbr -e 1000 -c 2 -i 67 -a 2 -x {1.0 2.0 -1 ------- null}
r -t 0.154 -s 1 -d 2 -p cbr -e 1000 -c 2 -i 54 -a 2 -x {1.0 2.0 54 ------- null}
+ -t 0.154260869565217 -s 1 -d 2 -p cbr -e 1000 -c 2 -i 78 -a 2 -x {1.0 2.0 78 ------- null}
- -t 0.1544 -s 1 -d 2 -p cbr -e 1000 -c 2 -i 68 -a 2 -x {1.0 2.0 68 ------- null}
h -t 0.1544 -s 1 -d 2 -p cbr -e 1000 -c 2 -i 68 -a 2 -x {1.0 2.0 -1 ------- null}
r -t 0.1548 -s 1 -d 2 -p cbr -e 1000 -c 2 -i 55 -a 2 -x {1.0 2.0 55 ------- null}
+ -t 0.15495652173913 -s 1 -d 2 -p cbr -e 1000 -c 2 -i 79 -a 2 -x {1.0 2.0 79 ------- null}
- -t 0.1552 -s 1 -d 2 -p cbr -e 1000 -c 2 -i 69 -a 2 -x {1.0 2.0 69 ------- null}
h -t 0.1552 -s 1 -d 2 -p cbr -e 1000 -c 2 -i 69 -a 2 -x {1.0 2.0 -1 ------- null}
r -t 0.1556 -s 1 -d 2 -p cbr -e 1000 -c 2 -i 56 -a 2 -x {1.0 2.0 56 ------- null}
+ -t 0.155652173913043 -s 1 -d 2 -p cbr -e 1000 -c 2 -i 80 -a 2 -x {1.0 2.0 80 ------- null}
- -t 0.156 -s 1 -d 2 -p cbr -e 1000 -c 2 -i 71 -a 2 -x {1.0 2.0 71 ------- null}
h -t 0.156 -s 1 -d 2 -p cbr -e 1000 -c 2 -i 71 -a 2 -x {1.0 2.0 -1 ------- null}
+ -t 0.156347826086956 -s 1 -d 2 -p cbr -e 1000 -c 2 -i 81 -a 2 -x {1.0 2.0 81 ------- null}
r -t 0.1564 -s 1 -d 2 -p cbr -e 1000 -c 2 -i 57 -a 2 -x {1.0 2.0 57 ------- null}
- -t 0.1568 -s 1 -d 2 -p cbr -e 1000 -c 2 -i 72 -a 2 -x {1.0 2.0 72 ------- null}
h -t 0.1568 -s 1 -d 2 -p cbr -e 1000 -c 2 -i 72 -a 2 -x {1.0 2.0 -1 ------- null}
+ -t 0.157043478260869 -s 1 -d 2 -p cbr -e 1000 -c 2 -i 82 -a 2 -x {1.0 2.0 82 ------- null}
r -t 0.1572 -s 1 -d 2 -p cbr -e 1000 -c 2 -i 58 -a 2 -x {1.0 2.0 58 ------- null}
- -t 0.1576 -s 1 -d 2 -p cbr -e 1000 -c 2 -i 73 -a 2 -x {1.0 2.0 73 ------- null}
h -t 0.1576 -s 1 -d 2 -p cbr -e 1000 -c 2 -i 73 -a 2 -x {1.0 2.0 -1 ------- null}
+ -t 0.157739130434782 -s 1 -d 2 -p cbr -e 1000 -c 2 -i 83 -a 2 -x {1.0 2.0 83 ------- null}
r -t 0.158 -s 1 -d 2 -p cbr -e 1000 -c 2 -i 59 -a 2 -x {1.0 2.0 59 ------- null}
- -t 0.1584 -s 1 -d 2 -p cbr -e 1000 -c 2 -i 74 -a 2 -x {1.0 2.0 74 ------- null}
h -t 0.1584 -s 1 -d 2 -p cbr -e 1000 -c 2 -i 74 -a 2 -x {1.0 2.0 -1 ------- null}
+ -t 0.158434782608696 -s 1 -d 2 -p cbr -e 1000 -c 2 -i 84 -a 2 -x {1.0 2.0 84 ------- null}
r -t 0.1588 -s 1 -d 2 -p cbr -e 1000 -c 2 -i 60 -a 2 -x {1.0 2.0 60 ------- null}
+ -t 0.159130434782609 -s 1 -d 2 -p cbr -e 1000 -c 2 -i 85 -a 2 -x {1.0 2.0 85 ------- null}
d -t 0.159130434782609 -s 1 -d 2 -p cbr -e 1000 -c 2 -i 85 -a 2 -x {1.0 2.0 85 ------- null}
- -t 0.1592 -s 1 -d 2 -p cbr -e 1000 -c 2 -i 75 -a 2 -x {1.0 2.0 75 ------- null}
h -t 0.1592 -s 1 -d 2 -p cbr -e 1000 -c 2 -i 75 -a 2 -x {1.0 2.0 -1 ------- null}
r -t 0.1596 -s 1 -d 2 -p cbr -e 1000 -c 2 -i 61 -a 2 -x {1.0 2.0 61 ------- null}
+ -t 0.159826086956522 -s 1 -d 2 -p cbr -e 1000 -c 2 -i 86 -a 2 -x {1.0 2.0 86 ------- null}
- -t 0.16 -s 1 -d 2 -p cbr -e 1000 -c 2 -i 76 -a 2 -x {1.0 2.0 76 ------- null}
h -t 0.16 -s 1 -d 2 -p cbr -e 1000 -c 2 -i 76 -a 2 -x {1.0 2.0 -1 ------- null}
r -t 0.1604 -s 1 -d 2 -p cbr -e 1000 -c 2 -i 62 -a 2 -x {1.0 2.0 62 ------- null}
+ -t 0.160521739130435 -s 1 -d 2 -p cbr -e 1000 -c 2 -i 87 -a 2 -x {1.0 2.0 87 ------- null}
- -t 0.1608 -s 1 -d 2 -p cbr -e 1000 -c 2 -i 78 -a 2 -x {1.0 2.0 78 ------- null}
h -t 0.1608 -s 1 -d 2 -p cbr -e 1000 -c 2 -i 78 -a 2 -x {1.0 2.0 -1 ------- null}
r -t 0.1612 -s 1 -d 2 -p cbr -e 1000 -c 2 -i 63 -a 2 -x {1.0 2.0 63 ------- null}
+ -t 0.161217391304348 -s 1 -d 2 -p cbr -e 1000 -c 2 -i 88 -a 2 -x {1.0 2.0 88 ------- null}
- -t 0.1616 -s 1 -d 2 -p cbr -e 1000 -c 2 -i 79 -a 2 -x {1.0 2.0 79 ------- null}
h -t 0.1616 -s 1 -d 2 -p cbr -e 1000 -c 2 -i 79 -a 2 -x {1.0 2.0 -1 ------- null}
+ -t 0.161913043478261 -s 1 -d 2 -p cbr -e 1000 -c 2 -i 89 -a 2 -x {1.0 2.0 89 ------- null}
r -t 0.162 -s 1 -d 2 -p cbr -e 1000 -c 2 -i 64 -a 2 -x {1.0 2.0 64 ------- null}
- -t 0.1624 -s 1 -d 2 -p cbr -e 1000 -c 2 -i 80 -a 2 -x {1.0 2.0 80 ------- null}
h -t 0.1624 -s 1 -d 2 -p cbr -e 1000 -c 2 -i 80 -a 2 -x {1.0 2.0 -1 ------- null}
+ -t 0.162608695652174 -s 1 -d 2 -p cbr -e 1000 -c 2 -i 90 -a 2 -x {1.0 2.0 90 ------- null}
r -t 0.1628 -s 1 -d 2 -p cbr -e 1000 -c 2 -i 65 -a 2 -x {1.0 2.0 65 ------- null}
- -t 0.1632 -s 1 -d 2 -p cbr -e 1000 -c 2 -i 81 -a 2 -x {1.0 2.0 81 ------- null}
h -t 0.1632 -s 1 -d 2 -p cbr -e 1000 -c 2 -i 81 -a 2 -x {1.0 2.0 -1 ------- null}
+ -t 0.163304347826087 -s 1 -d 2 -p cbr -e 1000 -c 2 -i 91 -a 2 -x {1.0 2.0 91 ------- null}
r -t 0.1636 -s 1 -d 2 -p cbr -e 1000 -c 2 -i 66 -a 2 -x {1.0 2.0 66 ------- null}
- -t 0.164 -s 1 -d 2 -p cbr -e 1000 -c 2 -i 82 -a 2 -x {1.0 2.0 82 ------- null}
h -t 0.164 -s 1 -d 2 -p cbr -e 1000 -c 2 -i 82 -a 2 -x {1.0 2.0 -1 ------- null}
+ -t 0.164 -s 1 -d 2 -p cbr -e 1000 -c 2 -i 92 -a 2 -x {1.0 2.0 92 ------- null}
r -t 0.1644 -s 1 -d 2 -p cbr -e 1000 -c 2 -i 67 -a 2 -x {1.0 2.0 67 ------- null}
+ -t 0.164695652173913 -s 1 -d 2 -p cbr -e 1000 -c 2 -i 93 -a 2 -x {1.0 2.0 93 ------- null}
d -t 0.164695652173913 -s 1 -d 2 -p cbr -e 1000 -c 2 -i 93 -a 2 -x {1.0 2.0 93 ------- null}
- -t 0.1648 -s 1 -d 2 -p cbr -e 1000 -c 2 -i 83 -a 2 -x {1.0 2.0 83 ------- null}
h -t 0.1648 -s 1 -d 2 -p cbr -e 1000 -c 2 -i 83 -a 2 -x {1.0 2.0 -1 ------- null}
r -t 0.1652 -s 1 -d 2 -p cbr -e 1000 -c 2 -i 68 -a 2 -x {1.0 2.0 68 ------- null}
+ -t 0.165391304347826 -s 1 -d 2 -p cbr -e 1000 -c 2 -i 94 -a 2 -x {1.0 2.0 94 ------- null}
- -t 0.1656 -s 1 -d 2 -p cbr -e 1000 -c 2 -i 84 -a 2 -x {1.0 2.0 84 ------- null}
h -t 0.1656 -s 1 -d 2 -p cbr -e 1000 -c 2 -i 84 -a 2 -x {1.0 2.0 -1 ------- null}
r -t 0.166 -s 1 -d 2 -p cbr -e 1000 -c 2 -i 69 -a 2 -x {1.0 2.0 69 ------- null}
+ -t 0.166086956521739 -s 1 -d 2 -p cbr -e 1000 -c 2 -i 95 -a 2 -x {1.0 2.0 95 ------- null}
- -t 0.1664 -s 1 -d 2 -p cbr -e 1000 -c 2 -i 86 -a 2 -x {1.0 2.0 86 ------- null}
h -t 0.1664 -s 1 -d 2 -p cbr -e 1000 -c 2 -i 86 -a 2 -x {1.0 2.0 -1 ------- null}
+ -t 0.166782608695652 -s 1 -d 2 -p cbr -e 1000 -c 2 -i 96 -a 2 -x {1.0 2.0 96 ------- null}
r -t 0.1668 -s 1 -d 2 -p cbr -e 1000 -c 2 -i 71 -a 2 -x {1.0 2.0 71 ------- null}
- -t 0.1672 -s 1 -d 2 -p cbr -e 1000 -c 2 -i 87 -a 2 -x {1.0 2.0 87 ------- null}
h -t 0.1672 -s 1 -d 2 -p cbr -e 1000 -c 2 -i 87 -a 2 -x {1.0 2.0 -1 ------- null}
+ -t 0.167478260869565 -s 1 -d 2 -p cbr -e 1000 -c 2 -i 97 -a 2 -x {1.0 2.0 97 ------- null}
r -t 0.1676 -s 1 -d 2 -p cbr -e 1000 -c 2 -i 72 -a 2 -x {1.0 2.0 72 ------- null}
- -t 0.168 -s 1 -d 2 -p cbr -e 1000 -c 2 -i 88 -a 2 -x {1.0 2.0 88 ------- null}
h -t 0.168 -s 1 -d 2 -p cbr -e 1000 -c 2 -i 88 -a 2 -x {1.0 2.0 -1 ------- null}
+ -t 0.168173913043478 -s 1 -d 2 -p cbr -e 1000 -c 2 -i 98 -a 2 -x {1.0 2.0 98 ------- null}