V -t * -v 1.0a5 -a 0
A -t * -n 1 -p 0 -o 0x7fffffff -c 30 -a 1
A -t * -h 1 -m 1073741823 -s 0
c -t * -i 1 -n Blue
c -t * -i 2 -n Red
n -t * -a 0 -s 0 -S UP -v circle -c black -i black
n -t * -a 1 -s 1 -S UP -v circle -c black -i black
n -t * -a 2 -s 2 -S UP -v circle -c black -i black
n -t * -a 3 -s 3 -S UP -v circle -c black -i black
l -t * -s 2 -d 3 -S UP -r 10000000 -D 0.01 -c black -o right-up
l -t * -s 0 -d 1 -S UP -r 10000000 -D 0.01 -c black -o right-down
l -t * -s 1 -d 2 -S UP -r 10000000 -D 0.01 -c black -o center
q -t * -s 2 -d 1 -a 0.5
q -t * -s 1 -d 2 -a 0.5
+ -t 0.1 -s 1 -d 2 -p cbr -e 1000 -c 2 -i 0 -a 2 -x {1.0 2.0 0 ------- null}
- -t 0.1 -s 1 -d 2 -p cbr -e 1000 -c 2 -i 0 -a 2 -x {1.0 2.0 0 ------- null}
h -t 0.1 -s 1 -d 2 -p cbr -e 1000 -c 2 -i 0 -a 2 -x {1.0 2.0 -1 ------- null}
+ -t 0.100888888888889 -s 1 -d 2 -p cbr -e 1000 -c 2 -i 1 -a 2 -x {1.0 2.0 1 ------- null}
- -t 0.100888888888889 -s 1 -d 2 -p cbr -e 1000 -c 2 -i 1 -a 2 -x {1.0 2.0 1 ------- null}
h -t 0.100888888888889 -s 1 -d 2 -p cbr -e 1000 -c 2 -i 1 -a 2 -x {1.0 2.0 -1 ------- null}
+ -t 0.101777777777778 -s 1 -d 2 -p cbr -e 1000 -c 2 -i 2 -a 2 -x {1.0 2.0 2 ------- null}
- -t 0.101777777777778 -s 1 -d 2 -p cbr -e 1000 -c 2 -i 2 -a 2 -x {1.0 2.0 2 ------- null}
h -t 0.101777777777778 -s 1 -d 2 -p cbr -e 1000 -c 2 -i 2 -a 2 -x {1.0 2.0 -1 ------- null}
+ -t 0.102666666666667 -s 1 -d 2 -p cbr -e 1000 -c 2 -i 3 -a 2 -x {1.0 2.0 3 ------- null}
- -t 0.102666666666667 -s 1 -d 2 -p cbr -e 1000 -c 2 -i 3 -a 2 -x {1.0 2.0 3 ------- null}
h -t 0.102666666666667 -s 1 -d 2 -p cbr -e 1000 -c 2 -i 3 -a 2 -x {1.0 2.0 -1 ------- null}
+ -t 0.103555555555556 -s 1 -d 2 -p cbr -e 1000 -c 2 -i 4 -a 2 -x {1.0 2.0 4 ------- null}
- -t 0.103555555555556 -s 1 -d 2 -p cbr -e 1000 -c 2 -i 4 -a 2 -x {1.0 2.0 4 ------- null}
h -t 0.103555555555556 -s 1 -d 2 -p cbr -e 1000 -c 2 -i 4 -a 2 -x {1.0 2.0 -1 ------- null}
+ -t 0.104444444444444 -s 1 -d 2 -p cbr -e 1000 -c 2 -i 5 -a 2 -x {1.0 2.0 5 ------- null}
- -t 0.104444444444444 -s 1 -d 2 -p cbr -e 1000 -c 2 -i 5 -a 2 -x {1.0 2.0 5 ------- null}
h -t 0.104444444444444 -s 1 -d 2 -p cbr -e 1000 -c 2 -i 5 -a 2 -x {1.0 2.0 -1 ------- null}
+ -t 0.105333333333333 -s 1 -d 2 -p cbr -e 1000 -c 2 -i 6 -a 2 -x {1.0 2.0 6 ------- null}
- -t 0.105333333333333 -s 1 -d 2 -p cbr -e 1000 -c 2 -i 6 -a 2 -x {1.0 2.0 6 ------- null}
h -t 0.105333333333333 -s 1 -d 2 -p cbr -e 1000 -c 2 -i 6 -a 2 -x {1.0 2.0 -1 ------- null}
+ -t 0.106222222222222 -s 1 -d 2 -p cbr -e 1000 -c 2 -i 7 -a 2 -x {1.0 2.0 7 ------- null}
- -t 0.106222222222222 -s 1 -d 2 -p cbr -e 1000 -c 2 -i 7 -a 2 -x {1.0 2.0 7 ------- null}
h -t 0.106222222222222 -s 1 -d 2 -p cbr -e 1000 -c 2 -i 7 -a 2 -x {1.0 2.0 -1 ------- null}
+ -t 0.107111111111111 -s 1 -d 2 -p cbr -e 1000 -c 2 -i 8 -a 2 -x {1.0 2.0 8 ------- null}
- -t 0.107111111111111 -s 1 -d 2 -p cbr -e 1000 -c 2 -i 8 -a 2 -x {1.0 2.0 8 ------- null}
h -t 0.107111111111111 -s 1 -d 2 -p cbr -e 1000 -c 2 -i 8 -a 2 -x {1.0 2.0 -1 ------- null}
+ -t 0.108 -s 1 -d 2 -p cbr -e 1000 -c 2 -i 9 -a 2 -x {1.0 2.0 9 ------- null}
- -t 0.108 -s 1 -d 2 -p cbr -e 1000 -c 2 -i 9 -a 2 -x {1.0 2.0 9 ------- null}
h -t 0.108 -s 1 -d 2 -p cbr -e 1000 -c 2 -i 9 -a 2 -x {1.0 2.0 -1 ------- null}
+ -t 0.108888888888889 -s 1 -d 2 -p cbr -e 1000 -c 2 -i 10 -a 2 -x {1.0 2.0 10 ------- null}
- -t 0.108888888888889 -s 1 -d 2 -p cbr -e 1000 -c 2 -i 10 -a 2 -x {1.0 2.0 10 ------- null}
h -t 0.108888888888889 -s 1 -d 2 -p cbr -e 1000 -c 2 -i 10 -a 2 -x {1.0 2.0 -1 ------- null}
+ -t 0.109777777777778 -s 1 -d 2 -p cbr -e 1000 -c 2 -i 11 -a 2 -x {1.0 2.0 11 ------- null}
- -t 0.109777777777778 -s 1 -d 2 -p cbr -e 1000 -c 2 -i 11 -a 2 -x {1.0 2.0 11 ------- null}
h -t 0.109777777777778 -s 1 -d 2 -p cbr -e 1000 -c 2 -i 11 -a 2 -x {1.0 2.0 -1 ------- null}
+ -t 0.110666666666667 -s 1 -d 2 -p cbr -e 1000 -c 2 -i 12 -a 2 -x {1.0 2.0 12 ------- null}
- -t 0.110666666666667 -s 1 -d 2 -p cbr -e 1000 -c 2 -i 12 -a 2 -x {1.0 2.0 12 ------- null}
h -t 0.110666666666667 -s 1 -d 2 -p cbr -e 1000 -c 2 -i 12 -a 2 -x {1.0 2.0 -1 ------- null}
r -t 0.1108 -s 1 -d 2 -p cbr -e 1000 -c 2 -i 0 -a 2 -x {1.0 2.0 0 ------- null}
+ -t 0.111555555555555 -s 1 -d 2 -p cbr -e 1000 -c 2 -i 13 -a 2 -x {1.0 2.0 13 ------- null}
- -t 0.111555555555555 -s 1 -d 2 -p cbr -e 1000 -c 2 -i 13 -a 2 -x {1.0 2.0 13 ------- null}
h -t 0.111555555555555 -s 1 -d 2 -p cbr -e 1000 -c 2 -i 13 -a 2 -x {1.0 2.0 -1 ------- null}
r -t 0.111688888888889 -s 1 -d 2 -p cbr -e 1000 -c 2 -i 1 -a 2 -x {1.0 2.0 1 ------- null}
+ -t 0.112444444444444 -s 1 -d 2 -p cbr -e 1000 -c 2 -i 14 -a 2 -x {1.0 2.0 14 ------- null}
- -t 0.112444444444444 -s 1 -d 2 -p cbr -e 1000 -c 2 -i 14 -a 2 -x {1.0 2.0 14 ------- null}
h -t 0.112444444444444 -s 1 -d 2 -p cbr -e 1000 -c 2 -i 14 -a 2 -x {1.0 2.0 -1 ------- null}
r -t 0.112577777777778 -s 1 -d 2 -p cbr -e 1000 -c 2 -i 2 -a 2 -x {1.0 2.0 2 ------- null}
+ -t 0.113333333333333 -s 1 -d 2 -p cbr -e 1000 -c 2 -i 15 -a 2 -x {1.0 2.0 15 ------- null}
- -t 0.113333333333333 -s 1 -d 2 -p cbr -e 1000 -c 2 -i 15 -a 2 -x {1.0 2.0 15 ------- null}
h -t 0.113333333333333 -s 1 -d 2 -p cbr -e 1000 -c 2 -i 15 -a 2 -x {1.0 2.0 -1 ------- null}
r -t 0.113466666666667 -s 1 -d 2 -p cbr -e 1000 -c 2 -i 3 -a 2 -x {1.0 2.0 3 ------- null}
+ -t 0.114222222222222 -s 1 -d 2 -p cbr -e 1000 -c 2 -i 16 -a 2 -x {1.0 2.0 16 ------- null}
- -t 0.114222222222222 -s 1 -d 2 -p cbr -e 1000 -c 2 -i 16 -a 2 -x {1.0 2.0 16 ------- null}
h -t 0.114222222222222 -s 1 -d 2 -p cbr -e 1000 -c 2 -i 16 -a 2 -x {1.0 2.0 -1 ------- null}
r -t 0.114355555555556 -s 1 -d 2 -p cbr -e 1000 -c 2 -i 4 -a 2 -x {1.0 2.0 4 ------- null}
+ -t 0.115111111111111 -s 1 -d 2 -p cbr -e 1000 -c 2 -i 17 -a 2 -x {1.0 2.0 17 ------- null}
- -t 0.115111111111111 -s 1 -d 2 -p cbr -e 1000 -c 2 -i 17 -a 2 -x {1.0 2.0 17 ------- null}
h -t 0.115111111111111 -s 1 -d 2 -p cbr -e 1000 -c 2 -i 17 -a 2 -x {1.0 2.0 -1 ------- null}
r -t 0.115244444444444 -s 1 -d 2 -p cbr -e 1000 -c 2 -i 5 -a 2 -x {1.0 2.0 5 ------- null}
+ -t 0.116 -s 1 -d 2 -p cbr -e 1000 -c 2 -i 18 -a 2 -x {1.0 2.0 18 ------- null}
- -t 0.116 -s 1 -d 2 -p cbr -e 1000 -c 2 -i 18 -a 2 -x {1.0 2.0 18 ------- null}
h -t 0.116 -s 1 -d 2 -p cbr -e 1000 -c 2 -i 18 -a 2 -x {1.0 2.0 -1 ------- null}
r -t 0.116133333333333 -s 1 -d 2 -p cbr -e 1000 -c 2 -i 6 -a 2 -x {1.0 2.0 6 ------- null}
+ -t 0.116888888888889 -s 1 -d 2 -p cbr -e 1000 -c 2 -i 19 -a 2 -x {1.0 2.0 19 ------- null}
- -t 0.116888888888889 -s 1 -d 2 -p cbr -e 1000 -c 2 -i 19 -a 2 -x {1.0 2.0 19 ------- null}
h -t 0.116888888888889 -s 1 -d 2 -p cbr -e 1000 -c 2 -i 19 -a 2 -x {1.0 2.0 -1 ------- null}
r -t 0.117022222222222 -s 1 -d 2 -p cbr -e 1000 -c 2 -i 7 -a 2 -x {1.0 2.0 7 ------- null}
+ -t 0.117777777777778 -s 1 -d 2 -p cbr -e 1000 -c 2 -i 20 -a 2 -x {1.0 2.0 20 ------- null}
- -t 0.117777777777778 -s 1 -d 2 -p cbr -e 1000 -c 2 -i 20 -a 2 -x {1.0 2.0 20 ------- null}
h -t 0.117777777777778 -s 1 -d 2 -p cbr -e 1000 -c 2 -i 20 -a 2 -x {1.0 2.0 -1 ------- null}
r -t 0.117911111111111 -s 1 -d 2 -p cbr -e 1000 -c 2 -i 8 -a 2 -x {1.0 2.0 8 ------- null}
+ -t 0.118666666666667 -s 1 -d 2 -p cbr -e 1000 -c 2 -i 21 -a 2 -x {1.0 2.0 21 ------- null}
- -t 0.118666666666667 -s 1 -d 2 -p cbr -e 1000 -c 2 -i 21 -a 2 -x {1.0 2.0 21 ------- null}
h -t 0.118666666666667 -s 1 -d 2 -p cbr -e 1000 -c 2 -i 21 -a 2 -x {1.0 2.0 -1 ------- null}
r -t 0.1188 -s 1 -d 2 -p cbr -e 1000 -c 2 -i 9 -a 2 -x {1.0 2.0 9 ------- null}
+ -t 0.119555555555555 -s 1 -d 2 -p cbr -e 1000 -c 2 -i 22 -a 2 -x {1.0 2.0 22 ------- null}
- -t 0.119555555555555 -s 1 -d 2 -p cbr -e 1000 -c 2 -i 22 -a 2 -x {1.0 2.0 22 ------- null}
h -t 0.119555555555555 -s 1 -d 2 -p cbr -e 1000 -c 2 -i 22 -a 2 -x {1.0 2.0 -1 ------- null}
r -t 0.119688888888889 -s 1 -d 2 -p cbr -e 1000 -c 2 -i 10 -a 2 -x {1.0 2.0 10 ------- null}
+ -t 0.120444444444444 -s 1 -d 2 -p cbr -e 1000 -c 2 -i 23 -a 2 -x {1.0 2.0 23 ------- null}
- -t 0.120444444444444 -s 1 -d 2 -p cbr -e 1000 -c 2 -i 23 -a 2 -x {1.0 2.0 23 ------- null}
h -t 0.120444444444444 -s 1 -d 2 -p cbr -e 1000 -c 2 -i 23 -a 2 -x {1.0 2.0 -1 ------- null}
r -t 0.120577777777778 -s 1 -d 2 -p cbr -e 1000 -c 2 -i 11 -a 2 -x {1.0 2.0 11 ------- null}
+ -t 0.121333333333333 -s 1 -d 2 -p cbr -e 1000 -c 2 -i 24 -a 2 -x {1.0 2.0 24 ------- null}
- -t 0.121333333333333 -s 1 -d 2 -p cbr -e 1000 -c 2 -i 24 -a 2 -x {1.0 2.0 24 ------- null}
h -t 0.121333333333333 -s 1 -d 2 -p cbr -e 1000 -c 2 -i 24 -a 2 -x {1.0 2.0 -1 ------- null}
r -t 0.121466666666667 -s 1 -d 2 -p cbr -e 1000 -c 2 -i 12 -a 2 -x {1.0 2.0 12 ------- null}
+ -t 0.122222222222222 -s 1 -d 2 -p cbr -e 1000 -c 2 -i 25 -a 2 -x {1.0 2.0 25 ------- null}
- -t 0.122222222222222 -s 1 -d 2 -p cbr -e 1000 -c 2 -i 25 -a 2 -x {1.0 2.0 25 ------- null}
h -t 0.122222222222222 -s 1 -d 2 -p cbr -e 1000 -c 2 -i 25 -a 2 -x {1.0 2.0 -1 ------- null}
r -t 0.122355555555555 -s 1 -d 2 -p cbr -e 1000 -c 2 -i 13 -a 2 -x {1.0 2.0 13 ------- null}
+ -t 0.123111111111111 -s 1 -d 2 -p cbr -e 1000 -c 2 -i 26 -a 2 -x {1.0 2.0 26 ------- null}
- -t 0.123111111111111 -s 1 -d 2 -p cbr -e 1000 -c 2 -i 26 -a 2 -x {1.0 2.0 26 ------- null}
h -t 0.123111111111111 -s 1 -d 2 -p cbr -e 1000 -c 2 -i 26 -a 2 -x {1.0 2.0 -1 ------- null}
r -t 0.123244444444444 -s 1 -d 2 -p cbr -e 1000 -c 2 -i 14 -a 2 -x {1.0 2.0 14 ------- null}
+ -t 0.124 -s 1 -d 2 -p cbr -e 1000 -c 2 -i 27 -a 2 -x {1.0 2.0 27 ------- null}
- -t 0.124 -s 1 -d 2 -p cbr -e 1000 -c 2 -i 27 -a 2 -x {1.0 2.0 27 ------- null}
h -t 0.124 -s 1 -d 2 -p cbr -e 1000 -c 2 -i 27 -a 2 -x {1.0 2.0 -1 ------- null}
r -t 0.124133333333333 -s 1 -d 2 -p cbr -e 1000 -c 2 -i 15 -a 2 -x {1.0 2.0 15 ------- null}
+ -t 0.124888888888889 -s 1 -d 2 -p cbr -e 1000 -c 2 -i 28 -a 2 -x {1.0 2.0 28 ------- null}
- -t 0.124888888888889 -s 1 -d 2 -p cbr -e 1000 -c 2 -i 28 -a 2 -x {1.0 2.0 28 ------- null}
h -t 0.124888888888889 -s 1 -d 2 -p cbr -e 1000 -c 2 -i 28 -a 2 -x {1.0 2.0 -1 ------- null}
r -t 0.125022222222222 -s 1 -d 2 -p cbr -e 1000 -c 2 -i 16 -a 2 -x {1.0 2.0 16 ------- null}
+ -t 0.125777777777778 -s 1 -d 2 -p cbr -e 1000 -c 2 -i 29 -a 2 -x {1.0 2.0 29 ------- null}
- -t 0.125777777777778 -s 1 -d 2 -p cbr -e 1000 -c 2 -i 29 -a 2 -x {1.0 2.0 29 ------- null}
h -t 0.125777777777778 -s 1 -d 2 -p cbr -e 1000 -c 2 -i 29 -a 2 -x {1.0 2.0 -1 ------- null}
r -t 0.125911111111111 -s 1 -d 2 -p cbr -e 1000 -c 2 -i 17 -a 2 -x {1.0 2.0 17 ------- null}
+ -t 0.126666666666667 -s 1 -d 2 -p cbr -e 1000 -c 2 -i 30 -a 2 -x {1.0 2.0 30 ------- null}
- -t 0.126666666666667 -s 1 -d 2 -p cbr -e 1000 -c 2 -i 30 -a 2 -x {1.0 2.0 30 ------- null}
h -t 0.126666666666667 -s 1 -d 2 -p cbr -e 1000 -c 2 -i 30 -a 2 -x {1.0 2.0 -1 ------- null}
r -t 0.1268 -s 1 -d 2 -p cbr -e 1000 -c 2 -i 18 -a 2 -x {1.0 2.0 18 ------- null}
+ -t 0.127555555555555 -s 1 -d 2 -p cbr -e 1000 -c 2 -i 31 -a 2 -x {1.0 2.0 31 ------- null}
- -t 0.127555555555555 -s 1 -d 2 -p cbr -e 1000 -c 2 -i 31 -a 2 -x {1.0 2.0 31 ------- null}
h -t 0.127555555555555 -s 1 -d 2 -p cbr -e 1000 -c 2 -i 31 -a 2 -x {1.0 2.0 -1 ------- null}
r -t 0.127688888888889 -s 1 -d 2 -p cbr -e 1000 -c 2 -i 19 -a 2 -x {1.0 2.0 19 ------- null}
+ -t 0.128444444444444 -s 1 -d 2 -p cbr -e 1000 -c 2 -i 32 -a 2 -x {1.0 2.0 32 ------- null}
- -t 0.128444444444444 -s 1 -d 2 -p cbr -e 1000 -c 2 -i 32 -a 2 -x {1.0 2.0 32 ------- null}
h -t 0.128444444444444 -s 1 -d 2 -p cbr -e 1000 -c 2 -i 32 -a 2 -x {1.0 2.0 -1 ------- null}
r -t 0.128577777777778 -s 1 -d 2 -p cbr -e 1000 -c 2 -i 20 -a 2 -x {1.0 2.0 20 ------- null}
+ -t 0.129333333333333 -s 1 -d 2 -p cbr -e 1000 -c 2 -i 33 -a 2 -x {1.0 2.0 33 ------- null}
- -t 0.129333333333333 -s 1 -d 2 -p cbr -e 1000 -c 2 -i 33 -a 2 -x {1.0 2.0 33 ------- null}
h -t 0.129333333333333 -s 1 -d 2 -p cbr -e 1000 -c 2 -i 33 -a 2 -x {1.0 2.0 -1 ------- null}
r -t 0.129466666666667 -s 1 -d 2 -p cbr -e 1000 -c 2 -i 21 -a 2 -x {1.0 2.0 21 ------- null}
+ -t 0.130222222222222 -s 1 -d 2 -p cbr -e 1000 -c 2 -i 34 -a 2 -x {1.0 2.0 34 ------- null}
- -t 0.130222222222222 -s 1 -d 2 -p cbr -e 1000 -c 2 -i 34 -a 2 -x {1.0 2.0 34 ------- null}
h -t 0.130222222222222 -s 1 -d 2 -p cbr -e 1000 -c 2 -i 34 -a 2 -x {1.0 2.0 -1 ------- null}
r -t 0.130355555555555 -s 1 -d 2 -p cbr -e 1000 -c 2 -i 22 -a 2 -x {1.0 2.0 22 ------- null}
+ -t 0.131111111111111 -s 1 -d 2 -p cbr -e 1000 -c 2 -i 35 -a 2 -x {1.0 2.0 35 ------- null}
- -t 0.131111111111111 -s 1 -d 2 -p cbr -e 1000 -c 2 -i 35 -a 2 -x {1.0 2.0 35 ------- null}
h -t 0.131111111111111 -s 1 -d 2 -p cbr -e 1000 -c 2 -i 35 -a 2 -x {1.0 2.0 -1 ------- null}
r -t 0.131244444444444 -s 1 -d 2 -p cbr -e 1000 -c 2 -i 23 -a 2 -x {1.0 2.0 23 ------- null}
+ -t 0.132 -s 1 -d 2 -p cbr -e 1000 -c 2 -i 36 -a 2 -x {1.0 2.0 36 ------- null}
- -t 0.132 -s 1 -d 2 -p cbr -e 1000 -c 2 -i 36 -a 2 -x {1.0 2.0 36 ------- null}
h -t 0.132 -s 1 -d 2 -p cbr -e 1000 -c 2 -i 36 -a 2 -x {1.0 2.0 -1 ------- null}
r -t 0.132133333333333 -s 1 -d 2 -p cbr -e 1000 -c 2 -i 24 -a 2 -x {1.0 2.0 24 ------- null}
+ -t 0.132888888888889 -s 1 -d 2 -p cbr -e 1000 -c 2 -i 37 -a 2 -x {1.0 2.0 37 ------- null}
- -t 0.132888888888889 -s 1 -d 2 -p cbr -e 1000 -c 2 -i 37 -a 2 -x {1.0 2.0 37 ------- null}
h -t 0.132888888888889 -s 1 -d 2 -p cbr -e 1000 -c 2 -i 37 -a 2 -x {1.0 2.0 -1 ------- null}
r -t 0.133022222222222 -s 1 -d 2 -p cbr -e 1000 -c 2 -i 25 -a 2 -x {1.0 2.0 25 ------- null}
+ -t 0.133777777777778 -s 1 -d 2 -p cbr -e 1000 -c 2 -i 38 -a 2 -x {1.0 2.0 38 ------- null}
- -t 0.133777777777778 -s 1 -d 2 -p cbr -e 1000 -c 2 -i 38 -a 2 -x {1.0 2.0 38 ------- null}
h -t 0.133777777777778 -s 1 -d 2 -p cbr -e 1000 -c 2 -i 38 -a 2 -x {1.0 2.0 -1 ------- null}
r -t 0.133911111111111 -s 1 -d 2 -p cbr -e 1000 -c 2 -i 26 -a 2 -x {1.0 2.0 26 ------- null}
+ -t 0.134666666666666 -s 1 -d 2 -p cbr -e 1000 -c 2 -i 39 -a 2 -x {1.0 2.0 39 ------- null}
- -t 0.134666666666666 -s 1 -d 2 -p cbr -e 1000 -c 2 -i 39 -a 2 -x {1.0 2.0 39 ------- null}
h -t 0.134666666666666 -s 1 -d 2 -p cbr -e 1000 -c 2 -i 39 -a 2 -x {1.0 2.0 -1 ------- null}
r -t 0.1348 -s 1 -d 2 -p cbr -e 1000 -c 2 -i 27 -a 2 -x {1.0 2.0 27 ------- null}
+ -t 0.135555555555555 -s 1 -d 2 -p cbr -e 1000 -c 2 -i 40 -a 2 -x {1.0 2.0 40 ------- null}
- -t 0.135555555555555 -s 1 -d 2 -p cbr -e 1000 -c 2 -i 40 -a 2 -x {1.0 2.0 40 ------- null}
h -t 0.135555555555555 -s 1 -d 2 -p cbr -e 1000 -c 2 -i 40 -a 2 -x {1.0 2.0 -1 ------- null}
r -t 0.135688888888889 -s 1 -d 2 -p cbr -e 1000 -c 2 -i 28 -a 2 -x {1.0 2.0 28 ------- null}
+ -t 0.136444444444444 -s 1 -d 2 -p cbr -e 1000 -c 2 -i 41 -a 2 -x {1.0 2.0 41 ------- null}
- -t 0.136444444444444 -s 1 -d 2 -p cbr -e 1000 -c 2 -i 41 -a 2 -x {1.0 2.0 41 ------- null}
h -t 0.136444444444444 -s 1 -d 2 -p cbr -e 1000 -c 2 -i 41 -a 2 -x {1.0 2.0 -1 ------- null}
r -t 0.136577777777778 -s 1 -d 2 -p cbr -e 1000 -c 2 -i 29 -a 2 -x {1.0 2.0 29 ------- null}
+ -t 0.137333333333333 -s 1 -d 2 -p cbr -e 1000 -c 2 -i 42 -a 2 -x {1.0 2.0 42 ------- null}
- -t 0.137333333333333 -s 1 -d 2 -p cbr -e 1000 -c 2 -i 42 -a 2 -x {1.0 2.0 42 ------- null}
h -t 0.137333333333333 -s 1 -d 2 -p cbr -e 1000 -c 2 -i 42 -a 2 -x {1.0 2.0 -1 ------- null}
r -t 0.137466666666667 -s 1 -d 2 -p cbr -e 1000 -c 2 -i 30 -a 2 -x {1.0 2.0 30 ------- null}
+ -t 0.138222222222222 -s 1 -d 2 -p cbr -e 1000 -c 2 -i 43 -a 2 -x {1.0 2.0 43 ------- null}
- -t 0.138222222222222 -s 1 -d 2 -p cbr -e 1000 -c 2 -i 43 -a 2 -x {1.0 2.0 43 ------- null}
h -t 0.138222222222222 -s 1 -d 2 -p cbr -e 1000 -c 2 -i 43 -a 2 -x {1.0 2.0 -1 ------- null}
r -t 0.138355555555555 -s 1 -d 2 -p cbr -e 1000 -c 2 -i 31 -a 2 -x {1.0 2.0 31 ------- null}
+ -t 0.139111111111111 -s 1 -d 2 -p cbr -e 1000 -c 2 -i 44 -a 2 -x {1.0 2.0 44 ------- null}
- -t 0.139111111111111 -s 1 -d 2 -p cbr -e 1000 -c 2 -i 44 -a 2 -x {1.0 2.0 44 ------- null}
h -t 0.139111111111111 -s 1 -d 2 -p cbr -e 1000 -c 2 -i 44 -a 2 -x {1.0 2.0 -1 ------- null}
r -t 0.139244444444444 -s 1 -d 2 -p cbr -e 1000 -c 2 -i 32 -a 2 -x {1.0 2.0 32 ------- null}
+ -t 0.14 -s 1 -d 2 -p cbr -e 1000 -c 2 -i 45 -a 2 -x {1.0 2.0 45 ------- null}
- -t 0.14 -s 1 -d 2 -p cbr -e 1000 -c 2 -i 45 -a 2 -x {1.0 2.0 45 ------- null}
h -t 0.14 -s 1 -d 2 -p cbr -e 1000 -c 2 -i 45 -a 2 -x {1.0 2.0 -1 ------- null}
r -t 0.140133333333333 -s 1 -d 2 -p cbr -e 1000 -c 2 -i 33 -a 2 -x {1.0 2.0 33 ------- null}
+ -t 0.140888888888889 -s 1 -d 2 -p cbr -e 1000 -c 2 -i 46 -a 2 -x {1.0 2.0 46 ------- null}
- -t 0.140888888888889 -s 1 -d 2 -p cbr -e 1000 -c 2 -i 46 -a 2 -x {1.0 2.0 46 ------- null}
h -t 0.140888888888889 -s 1 -d 2 -p cbr -e 1000 -c 2 -i 46 -a 2 -x {1.0 2.0 -1 ------- null}
r -t 0.141022222222222 -s 1 -d 2 -p cbr -e 1000 -c 2 -i 34 -a 2 -x {1.0 2.0 34 ------- null}
+ -t 0.141777777777778 -s 1 -d 2 -p cbr -e 1000 -c 2 -i 47 -a 2 -x {1.0 2.0 47 ------- null}
- -t 0.141777777777778 -s 1 -d 2 -p cbr -e 1000 -c 2 -i 47 -a 2 -x {1.0 2.0 47 ------- null}
h -t 0.141777777777778 -s 1 -d 2 -p cbr -e 1000 -c 2 -i 47 -a 2 -x {1.0 2.0 -1 ------- null}
r -t 0.141911111111111 -s 1 -d 2 -p cbr -e 1000 -c 2 -i 35 -a 2 -x {1.0 2.0 35 ------- null}
+ -t 0.142666666666666 -s 1 -d 2 -p cbr -e 1000 -c 2 -i 48 -a 2 -x {1.0 2.0 48 ------- null}
- -t 0.142666666666666 -s 1 -d 2 -p cbr -e 1000 -c 2 -i 48 -a 2 -x {1.0 2.0 48 ------- null}
h -t 0.142666666666666 -s 1 -d 2 -p cbr -e 1000 -c 2 -i 48 -a 2 -x {1.0 2.0 -1 ------- null}
r -t 0.1428 -s 1 -d 2 -p cbr -e 1000 -c 2 -i 36 -a 2 -x {1.0 2.0 36 ------- null}
+ -t 0.143555555555555 -s 1 -d 2 -p cbr -e 1000 -c 2 -i 49 -a 2 -x {1.0 2.0 49 ------- null}
- -t 0.143555555555555 -s 1 -d 2 -p cbr -e 1000 -c 2 -i 49 -a 2 -x {1.0 2.0 49 ------- null}
h -t 0.143555555555555 -s 1 -d 2 -p cbr -e 1000 -c 2 -i 49 -a 2 -x {1.0 2.0 -1 ------- null}
r -t 0.143688888888889 -s 1 -d 2 -p cbr -e 1000 -c 2 -i 37 -a 2 -x {1.0 2.0 37 ------- null}
+ -t 0.144444444444444 -s 1 -d 2 -p cbr -e 1000 -c 2 -i 50 -a 2 -x {1.0 2.0 50 ------- null}
- -t 0.144444444444444 -s 1 -d 2 -p cbr -e 1000 -c 2 -i 50 -a 2 -x {1.0 2.0 50 ------- null}
h -t 0.144444444444444 -s 1 -d 2 -p cbr -e 1000 -c 2 -i 50 -a 2 -x {1.0 2.0 -1 ------- null}
r -t 0.144577777777778 -s 1 -d 2 -p cbr -e 1000 -c 2 -i 38 -a 2 -x {1.0 2.0 38 ------- null}
+ -t 0.145333333333333 -s 1 -d 2 -p cbr -e 1000 -c 2 -i 51 -a 2 -x {1.0 2.0 51 ------- null}
- -t 0.145333333333333 -s 1 -d 2 -p cbr -e 1000 -c 2 -i 51 -a 2 -x {1.0 2.0 51 ------- null}
h -t 0.145333333333333 -s 1 -d 2 -p cbr -e 1000 -c 2 -i 51 -a 2 -x {1.0 2.0 -1 ------- null}
r -t 0.145466666666666 -s 1 -d 2 -p cbr -e 1000 -c 2 -i 39 -a 2 -x {1.0 2.0 39 ------- null}
+ -t 0.146222222222222 -s 1 -d 2 -p cbr -e 1000 -c 2 -i 52 -a 2 -x {1.0 2.0 52 ------- null}
- -t 0.146222222222222 -s 1 -d 2 -p cbr -e 1000 -c 2 -i 52 -a 2 -x {1.0 2.0 52 ------- null}
h -t 0.146222222222222 -s 1 -d 2 -p cbr -e 1000 -c 2 -i 52 -a 2 -x {1.0 2.0 -1 ------- null}
r -t 0.146355555555555 -s 1 -d 2 -p cbr -e 1000 -c 2 -i 40 -a 2 -x {1.0 2.0 40 ------- null}
+ -t 0.147111111111111 -s 1 -d 2 -p cbr -e 1000 -c 2 -i 53 -a 2 -x {1.0 2.0 53 ------- null}
- -t 0.147111111111111 -s 1 -d 2 -p cbr -e 1000 -c 2 -i 53 -a 2 -x {1.0 2.0 53 ------- null}
h -t 0.147111111111111 -s 1 -d 2 -p cbr -e 1000 -c 2 -i 53 -a 2 -x {1.0 2.0 -1 ------- null}
r -t 0.147244444444444 -s 1 -d 2 -p cbr -e 1000 -c 2 -i 41 -a 2 -x {1.0 2.0 41 ------- null}
+ -t 0.148 -s 1 -d 2 -p cbr -e 1000 -c 2 -i 54 -a 2 -x {1.0 2.0 54 ------- null}
- -t 0.148 -s 1 -d 2 -p cbr -e 1000 -c 2 -i 54 -a 2 -x {1.0 2.0 54 ------- null}
h -t 0.148 -s 1 -d 2 -p cbr -e 1000 -c 2 -i 54 -a 2 -x {1.0 2.0 -1 ------- null}
r -t 0.148133333333333 -s 1 -d 2 -p cbr -e 1000 -c 2 -i 42 -a 2 -x {1.0 2.0 42 ------- null}
+ -t 0.148888888888889 -s 1 -d 2 -p cbr -e 1000 -c 2 -i 55 -a 2 -x {1.0 2.0 55 ------- null}
- -t 0.148888888888889 -s 1 -d 2 -p cbr -e 1000 -c 2 -i 55 -a 2 -x {1.0 2.0 55 ------- null}
h -t 0.148888888888889 -s 1 -d 2 -p cbr -e 1000 -c 2 -i 55 -a 2 -x {1.0 2.0 -1 ------- null}
r -t 0.149022222222222 -s 1 -d 2 -p cbr -e 1000 -c 2 -i 43 -a 2 -x {1.0 2.0 43 ------- null}
+ -t 0.149777777777777 -s 1 -d 2 -p cbr -e 1000 -c 2 -i 56 -a 2 -x {1.0 2.0 56 ------- null}
- -t 0.149777777777777 -s 1 -d 2 -p cbr -e 1000 -c 2 -i 56 -a 2 -x {1.0 2.0 56 ------- null}
h -t 0.149777777777777 -s 1 -d 2 -p cbr -e 1000 -c 2 -i 56 -a 2 -x {1.0 2.0 -1 ------- null}
r -t 0.149911111111111 -s 1 -d 2 -p cbr -e 1000 -c 2 -i 44 -a 2 -x {1.0 2.0 44 ------- null}
+ -t 0.150666666666666 -s 1 -d 2 -p cbr -e 1000 -c 2 -i 57 -a 2 -x {1.0 2.0 57 ------- null}
- -t 0.150666666666666 -s 1 -d 2 -p cbr -e 1000 -c 2 -i 57 -a 2 -x {1.0 2.0 57 ------- null}
h -t 0.150666666666666 -s 1 -d 2 -p cbr -e 1000 -c 2 -i 57 -a 2 -x {1.0 2.0 -1 ------- null}
r -t 0.1508 -s 1 -d 2 -p cbr -e 1000 -c 2 -i 45 -a 2 -x {1.0 2.0 45 ------- null}
+ -t 0.151555555555555 -s 1 -d 2 -p cbr -e 1000 -c 2 -i 58 -a 2 -x {1.0 2.0 58 ------- null}
- -t 0.151555555555555 -s 1 -d 2 -p cbr -e 1000 -c 2 -i 58 -a 2 -x {1.0 2.0 58 ------- null}
h -t 0.151555555555555 -s 1 -d 2 -p cbr -e 1000 -c 2 -i 58 -a 2 -x {1.0 2.0 -1 ------- null}
r -t 0.151688888888889 -s 1 -d 2 -p cbr -e 1000 -c 2 -i 46 -a 2 -x {1.0 2.0 46 ------- null}
+ -t 0.152444444444444 -s 1 -d 2 -p cbr -e 1000 -c 2 -i 59 -a 2 -x {1.0 2.0 59 ------- null}
- -t 0.152444444444444 -s 1 -d 2 -p cbr -e 1000 -c 2 -i 59 -a 2 -x {1.0 2.0 59 ------- null}
h -t 0.152444444444444 -s 1 -d 2 -p cbr -e 1000 -c 2 -i 59 -a 2 -x {1.0 2.0 -1 ------- null}
r -t 0.152577777777778 -s 1 -d 2 -p cbr -e 1000 -c 2 -i 47 -a 2 -x {1.0 2.0 47 ------- null}
+ -t 0.153333333333333 -s 1 -d 2 -p cbr -e 1000 -c 2 -i 60 -a 2 -x {1.0 2.0 60 ------- null}
- -t 0.153333333333333 -s 1 -d 2 -p cbr -e 1000 -c 2 -i 60 -a 2 -x {1.0 2.0 60 ------- null}
h -t 0.153333333333333 -s 1 -d 2 -p cbr -e 1000 -c 2 -i 60 -a 2 -x {1.0 2.0 -1 ------- null}
r -t 0.153466666666666 -s 1 -d 2 -p cbr -e 1000 -c 2 -i 48 -a 2 -x {1.0 2.0 48 ------- null}
+ -t 0.154222222222222 -s 1 -d 2 -p cbr -e 1000 -c 2 -i 61 -a 2 -x {1.0 2.0 61 ------- null}
- -t 0.154222222222222 -s 1 -d 2 -p cbr -e 1000 -c 2 -i 61 -a 2 -x {1.0 2.0 61 ------- null}
h -t 0.154222222222222 -s 1 -d 2 -p cbr -e 1000 -c 2 -i 61 -a 2 -x {1.0 2.0 -1 ------- null}
r -t 0.154355555555555 -s 1 -d 2 -p cbr -e 1000 -c 2 -i 49 -a 2 -x {1.0 2.0 49 ------- null}
+ -t 0.155111111111111 -s 1 -d 2 -p cbr -e 1000 -c 2 -i 62 -a 2 -x {1.0 2.0 62 ------- null}
- -t 0.155111111111111 -s 1 -d 2 -p cbr -e 1000 -c 2 -i 62 -a 2 -x {1.0 2.0 62 ------- null}
h -t 0.155111111111111 -s 1 -d 2 -p cbr -e 1000 -c 2 -i 62 -a 2 -x {1.0 2.0 -1 ------- null}
r -t 0.155244444444444 -s 1 -d 2 -p cbr -e 1000 -c 2 -i 50 -a 2 -x {1.0 2.0 50 ------- null}
+ -t 0.156 -s 1 -d 2 -p cbr -e 1000 -c 2 -i 63 -a 2 -x {1.0 2.0 63 ------- null}
- -t 0.156 -s 1 -d 2 -p cbr -e 1000 -c 2 -i 63 -a 2 -x {1.0 2.0 63 ------- null}
h -t 0.156 -s 1 -d 2 -p cbr -e 1000 -c 2 -i 63 -a 2 -x {1.0 2.0 -1 ------- null}
r -t 0.156133333333333 -s 1 -d 2 -p cbr -e 1000 -c 2 -i 51 -a 2 -x {1.0 2.0 51 ------- null}
+ -t 0.156888888888889 -s 1 -d 2 -p cbr -e 1000 -c 2 -i 64 -a 2 -x {1.0 2.0 64 ------- null}
- -t 0.156888888888889 -s 1 -d 2 -p cbr -e 1000 -c 2 -i 64 -a 2 -x {1.0 2.0 64 ------- null}
h -t 0.156888888888889 -s 1 -d 2 -p cbr -e 1000 -c 2 -i 64 -a 2 -x {1.0 2.0 -1 ------- null}
r -t 0.157022222222222 -s 1 -d 2 -p cbr -e 1000 -c 2 -i 52 -a 2 -x {1.0 2.0 52 ------- null}
+ -t 0.157777777777777 -s 1 -d 2 -p cbr -e 1000 -c 2 -i 65 -a 2 -x {1.0 2.0 65 ------- null}
- -t 0.157777777777777 -s 1 -d 2 -p cbr -e 1000 -c 2 -i 65 -a 2 -x {1.0 2.0 65 ------- null}
h -t 0.157777777777777 -s 1 -d 2 -p cbr -e 1000 -c 2 -i 65 -a 2 -x {1.0 2.0 -1 ------- null}
r -t 0.157911111111111 -s 1 -d 2 -p cbr -e 1000 -c 2 -i 53 -a 2 -x {1.0 2.0 53 ------- null}
+ -t 0.158666666666666 -s 1 -d 2 -p cbr -e 1000 -c 2 -i 66 -a 2 -x {1.0 2.0 66 ------- null}
- -t 0.158666666666666 -s 1 -d 2 -p cbr -e 1000 -c 2 -i 66 -a 2 -x {1.0 2.0 66 ------- null}
h -t 0.158666666666666 -s 1 -d 2 -p cbr -e 1000 -c 2 -i 66 -a 2 -x {1.0 2.0 -1 ------- null}
r -t 0.1588 -s 1 -d 2 -p cbr -e 1000 -c 2 -i 54 -a 2 -x {1.0 2.0 54 ------- null}
+ -t 0.159555555555555 -s 1 -d 2 -p cbr -e 1000 -c 2 -i 67 -a 2 -x {1.0 2.0 67 ------- null}
- -t 0.159555555555555 -s 1 -d 2 -p cbr -e 1000 -c 2 -i 67 -a 2 -x {1.0 2.0 67 ------- null}
h -t 0.159555555555555 -s 1 -d 2 -p cbr -e 1000 -c 2 -i 67 -a 2 -x {1.0 2.0 -1 ------- null}
r -t 0.159688888888889 -s 1 -d 2 -p cbr -e 1000 -c 2 -i 55 -a 2 -x {1.0 2.0 55 ------- null}
+ -t 0.160444444444444 -s 1 -d 2 -p cbr -e 1000 -c 2 -i 68 -a 2 -x {1.0 2.0 68 ------- null}
- -t 0.160444444444444 -s 1 -d 2 -p cbr -e 1000 -c 2 -i 68 -a 2 -x {1.0 2.0 68 ------- null}
h -t 0.160444444444444 -s 1 -d 2 -p cbr -e 1000 -c 2 -i 68 -a 2 -x {1.0 2.0 -1 ------- null}
r -t 0.160577777777777 -s 1 -d 2 -p cbr -e 1000 -c 2 -i 56 -a 2 -x {1.0 2.0 56 ------- null}
+ -t 0.161333333333333 -s 1 -d 2 -p cbr -e 1000 -c 2 -i 69 -a 2 -x {1.0 2.0 69 ------- null}
- -t 0.161333333333333 -s 1 -d 2 -p cbr -e 1000 -c 2 -i 69 -a 2 -x {1.0 2.0 69 ------- null}
h -t 0.161333333333333 -s 1 -d 2 -p cbr -e 1000 -c 2 -i 69 -a 2 -x {1.0 2.0 -1 ------- null}
r -t 0.161466666666666 -s 1 -d 2 -p cbr -e 1000 -c 2 -i 57 -a 2 -x {1.0 2.0 57 ------- null}
+ -t 0.162222222222222 -s 1 -d 2 -p cbr -e 1000 -c 2 -i 70 -a 2 -x {1.0 2.0 70 ------- null}
- -t 0.162222222222222 -s 1 -d 2 -p cbr -e 1000 -c 2 -i 70 -a 2 -x {1.0 2.0 70 ------- null}
h -t 0.162222222222222 -s 1 -d 2 -p cbr -e 1000 -c 2 -i 70 -a 2 -x {1.0 2.0 -1 ------- null}
r -t 0.162355555555555 -s 1 -d 2 -p cbr -e 1000 -c 2 -i 58 -a 2 -x {1.0 2.0 58 ------- null}
+ -t 0.163111111111111 -s 1 -d 2 -p cbr -e 1000 -c 2 -i 71 -a 2 -x {1.0 2.0 71 ------- null}
- -t 0.163111111111111 -s 1 -d 2 -p cbr -e 1000 -c 2 -i 71 -a 2 -x {1.0 2.0 71 ------- null}
h -t 0.163111111111111 -s 1 -d 2 -p cbr -e 1000 -c 2 -i 71 -a 2 -x {1.0 2.0 -1 ------- null}
r -t 0.163244444444444 -s 1 -d 2 -p cbr -e 1000 -c 2 -i 59 -a 2 -x {1.0 2.0 59 ------- null}
+ -t 0.164 -s 1 -d 2 -p cbr -e 1000 -c 2 -i 72 -a 2 -x {1.0 2.0 72 ------- null}
- -t 0.164 -s 1 -d 2 -p cbr -e 1000 -c 2 -i 72 -a 2 -x {1.0 2.0 72 ------- null}
h -t 0.164 -s 1 -d 2 -p cbr -e 1000 -c 2 -i 72 -a 2 -x {1.0 2.0 -1 ------- null}
r -t 0.164133333333333 -s 1 -d 2 -p cbr -e 1000 -c 2 -i 60 -a 2 -x {1.0 2.0 60 ------- null}
+ -t 0.164888888888889 -s 1 -d 2 -p cbr -e 1000 -c 2 -i 73 -a 2 -x {1.0 2.0 73 ------- null}
- -t 0.164888888888889 -s 1 -d 2 -p cbr -e 1000 -c 2 -i 73 -a 2 -x {1.0 2.0 73 ------- null}
h -t 0.164888888888889 -s 1 -d 2 -p cbr -e 1000 -c 2 -i 73 -a 2 -x {1.0 2.0 -1 ------- null}
r -t 0.165022222222222 -s 1 -d 2 -p cbr -e 1000 -c 2 -i 61 -a 2 -x {1.0 2.0 61 ------- null}
+ -t 0.165777777777777 -s 1 -d 2 -p cbr -e 1000 -c 2 -i 74 -a 2 -x {1.0 2.0 74 ------- null}
- -t 0.165777777777777 -s 1 -d 2 -p cbr -e 1000 -c 2 -i 74 -a 2 -x {1.0 2.0 74 ------- null}
h -t 0.165777777777777 -s 1 -d 2 -p cbr -e 1000 -c 2 -i 74 -a 2 -x {1.0 2.0 -1 ------- null}
r -t 0.165911111111111 -s 1 -d 2 -p cbr -e 1000 -c 2 -i 62 -a 2 -x {1.0 2.0 62 ------- null}
+ -t 0.166666666666666 -s 1 -d 2 -p cbr -e 1000 -c 2 -i 75 -a 2 -x {1.0 2.0 75 ------- null}
- -t 0.166666666666666 -s 1 -d 2 -p cbr -e 1000 -c 2 -i 75 -a 2 -x {1.0 2.0 75 ------- null}
h -t 0.166666666666666 -s 1 -d 2 -p cbr -e 1000 -c 2 -i 75 -a 2 -x {1.0 2.0 -1 ------- null}
r -t 0.1668 -s 1 -d 2 -p cbr -e 1000 -c 2 -i 63 -a 2 -x {1.0 2.0 63 ------- null}
+ -t 0.167555555555555 -s 1 -d 2 -p cbr -e 1000 -c 2 -i 76 -a 2 -x {1.0 2.0 76 ------- null}
- -t 0.167555555555555 -s 1 -d 2 -p cbr -e 1000 -c 2 -i 76 -a 2 -x {1.0 2.0 76 ------- null}
h -t 0.167555555555555 -s 1 -d 2 -p cbr -e 1000 -c 2 -i 76 -a 2 -x {1.0 2.0 -1 ------- null}
r -t 0.167688888888889 -s 1 -d 2 -p cbr -e 1000 -c 2 -i 64 -a 2 -x {1.0 2.0 64 ------- null}
+ -t 0.168444444444444 -s 1 -d 2 -p cbr -e 1000 -c 2 -i 77 -a 2 -x {1.0 2.0 77 ------- null}
- -t 0.168444444444444 -s 1 -d 2 -p cbr -e 1000 -c 2 -i 77 -a 2 -x {1.0 2.0 77 ------- null}
h -t 0.168444444444444 -s 1 -d 2 -p cbr -e 1000 -c 2 -i 77 -a 2 -x {1.0 2.0 -1 ------- null}
r -t 0.168577777777777 -s 1 -d 2 -p cbr -e 1000 -c 2 -i 65 -a 2 -x {1.0 2.0 65 ------- null}
+ -t 0.169333333333333 -s 1 -d 2 -p cbr -e 1000 -c 2 -i 78 -a 2 -x {1.0 2.0 78 ------- null}
- -t 0.169333333333333 -s 1 -d 2 -p cbr -e 1000 -c 2 -i 78 -a 2 -x {1.0 2.0 78 ------- null}
h -t 0.169333333333333 -s 1 -d 2 -p cbr -e 1000 -c 2 -i 78 -a 2 -x {1.0 2.0 -1 ------- null}
r -t 0.169466666666666 -s 1 -d 2 -p cbr -e 1000 -c 2 -i 66 -a 2 -x {1.0 2.0 66 ------- null}
+ -t 0.170222222222222 -s 1 -d 2 -p cbr -e 1000 -c 2 -i 79 -a 2 -x {1.0 2.0 79 ------- null}
- -t 0.170222222222222 -s 1 -d 2 -p cbr -e 1000 -c 2 -i 79 -a 2 -x {1.0 2.0 79 ------- null}
h -t 0.170222222222222 -s 1 -d 2 -p cbr -e 1000 -c 2 -i 79 -a 2 -x {1.0 2.0 -1 ------- null}
r -t 0.170355555555555 -s 1 -d 2 -p cbr -e 1000 -c 2 -i 67 -a 2 -x {1.0 2.0 67 ------- null}
+ -t 0.171111111111111 -s 1 -d 2 -p cbr -e 1000 -c 2 -i 80 -a 2 -x {1.0 2.0 80 ------- null}
- -t 0.171111111111111 -s 1 -d 2 -p cbr -e 1000 -c 2 -i 80 -a 2 -x {1.0 2.0 80 ------- null}
h -t 0.171111111111111 -s 1 -d 2 -p cbr -e 1000 -c 2 -i 80 -a 2 -x {1.0 2.0 -1 ------- null}
r -t 0.171244444444444 -s 1 -d 2 -p cbr -e 1000 -c 2 -i 68 -a 2 -x {1.0 2.0 68 ------- null}
+ -t 0.172 -s 1 -d 2 -p cbr -e 1000 -c 2 -i 81 -a 2 -x {1.0 2.0 81 ------- null}
- -t 0.172 -s 1 -d 2 -p cbr -e 1000 -c 2 -i 81 -a 2 -x {1.0 2.0 81 ------- null}
h -t 0.172 -s 1 -d 2 -p cbr -e 1000 -c 2 -i 81 -a 2 -x {1.0 2.0 -1 ------- null}
r -t 0.172133333333333 -s 1 -d 2 -p cbr -e 1000 -c 2 -i 69 -a 2 -x {1.0 2.0 69 ------- null}
+ -t 0.172888888888888 -s 1 -d 2 -p cbr -e 1000 -c 2 -i 82 -a 2 -x {1.0 2.0 82 ------- null}
- -t 0.172888888888888 -s 1 -d 2 -p cbr -e 1000 -c 2 -i 82 -a 2 -x {1.0 2.0 82 ------- null}
h -t 0.172888888888888 -s 1 -d 2 -p cbr -e 1000 -c 2 -i 82 -a 2 -x {1.0 2.0 -1 ------- null}
r -t 0.173022222222222 -s 1 -d 2 -p cbr -e 1000 -c 2 -i 70 -a 2 -x {1.0 2.0 70 ------- null}
+ -t 0.173777777777777 -s 1 -d 2 -p cbr -e 1000 -c 2 -i 83 -a 2 -x {1.0 2.0 83 ------- null}
- -t 0.173777777777777 -s 1 -d 2 -p cbr -e 1000 -c 2 -i 83 -a 2 -x {1.0 2.0 83 ------- null}