V -t * -v 1.0a5 -a 0
A -t * -n 1 -p 0 -o 0x7fffffff -c 30 -a 1
A -t * -h 1 -m 1073741823 -s 0
c -t * -i 1 -n Blue
c -t * -i 2 -n Red
n -t * -a 4 -s 4 -S UP -v circle -c black -i black
n -t * -a 0 -s 0 -S UP -v circle -c black -i black
n -t * -a 5 -s 5 -S UP -v circle -c black -i black
n -t * -a 1 -s 1 -S UP -v circle -c black -i black
n -t * -a 2 -s 2 -S UP -v circle -c black -i black
n -t * -a 3 -s 3 -S UP -v circle -c black -i black
l -t * -s 2 -d 3 -S UP -r 2000000 -D 0.01 -c black -o right-up
l -t * -s 2 -d 5 -S UP -r 2000000 -D 0.01 -c black -o right-down
l -t * -s 0 -d 1 -S UP -r 2000000 -D 0.01 -c black -o right-down
l -t * -s 4 -d 1 -S UP -r 2000000 -D 0.01 -c black -o right-up
l -t * -s 1 -d 2 -S UP -r 1500000 -D 0.01 -c black -o center
q -t * -s 2 -d 1 -a 0.5
q -t * -s 1 -d 2 -a 0.5
+ -t 0.1 -s 0 -d 1 -p tcp -e 40 -c 1 -i 0 -a 1 -x {0.0 3.0 0 ------- null}
- -t 0.1 -s 0 -d 1 -p tcp -e 40 -c 1 -i 0 -a 1 -x {0.0 3.0 0 ------- null}
h -t 0.1 -s 0 -d 1 -p tcp -e 40 -c 1 -i 0 -a 1 -x {0.0 3.0 -1 ------- null}
r -t 0.11016 -s 0 -d 1 -p tcp -e 40 -c 1 -i 0 -a 1 -x {0.0 3.0 0 ------- null}
+ -t 0.11016 -s 1 -d 2 -p tcp -e 40 -c 1 -i 0 -a 1 -x {0.0 3.0 0 ------- null}
- -t 0.11016 -s 1 -d 2 -p tcp -e 40 -c 1 -i 0 -a 1 -x {0.0 3.0 0 ------- null}
h -t 0.11016 -s 1 -d 2 -p tcp -e 40 -c 1 -i 0 -a 1 -x {0.0 3.0 -1 ------- null}
r -t 0.120373333333333 -s 1 -d 2 -p tcp -e 40 -c 1 -i 0 -a 1 -x {0.0 3.0 0 ------- null}
+ -t 0.120373333333333 -s 2 -d 3 -p tcp -e 40 -c 1 -i 0 -a 1 -x {0.0 3.0 0 ------- null}
- -t 0.120373333333333 -s 2 -d 3 -p tcp -e 40 -c 1 -i 0 -a 1 -x {0.0 3.0 0 ------- null}
h -t 0.120373333333333 -s 2 -d 3 -p tcp -e 40 -c 1 -i 0 -a 1 -x {0.0 3.0 -1 ------- null}
r -t 0.130533333333333 -s 2 -d 3 -p tcp -e 40 -c 1 -i 0 -a 1 -x {0.0 3.0 0 ------- null}
+ -t 0.130533333333333 -s 3 -d 2 -p ack -e 40 -c 1 -i 1 -a 1 -x {3.0 0.0 0 ------- null}
- -t 0.130533333333333 -s 3 -d 2 -p ack -e 40 -c 1 -i 1 -a 1 -x {3.0 0.0 0 ------- null}
h -t 0.130533333333333 -s 3 -d 2 -p ack -e 40 -c 1 -i 1 -a 1 -x {3.0 0.0 -1 ------- null}
r -t 0.140693333333333 -s 3 -d 2 -p ack -e 40 -c 1 -i 1 -a 1 -x {3.0 0.0 0 ------- null}
+ -t 0.140693333333333 -s 2 -d 1 -p ack -e 40 -c 1 -i 1 -a 1 -x {3.0 0.0 0 ------- null}
- -t 0.140693333333333 -s 2 -d 1 -p ack -e 40 -c 1 -i 1 -a 1 -x {3.0 0.0 0 ------- null}
h -t 0.140693333333333 -s 2 -d 1 -p ack -e 40 -c 1 -i 1 -a 1 -x {3.0 0.0 -1 ------- null}
r -t 0.150906666666667 -s 2 -d 1 -p ack -e 40 -c 1 -i 1 -a 1 -x {3.0 0.0 0 ------- null}
+ -t 0.150906666666667 -s 1 -d 0 -p ack -e 40 -c 1 -i 1 -a 1 -x {3.0 0.0 0 ------- null}
- -t 0.150906666666667 -s 1 -d 0 -p ack -e 40 -c 1 -i 1 -a 1 -x {3.0 0.0 0 ------- null}
h -t 0.150906666666667 -s 1 -d 0 -p ack -e 40 -c 1 -i 1 -a 1 -x {3.0 0.0 -1 ------- null}
r -t 0.161066666666667 -s 1 -d 0 -p ack -e 40 -c 1 -i 1 -a 1 -x {3.0 0.0 0 ------- null}
+ -t 0.161066666666667 -s 0 -d 1 -p tcp -e 1040 -c 1 -i 2 -a 1 -x {0.0 3.0 1 ------- null}
- -t 0.161066666666667 -s 0 -d 1 -p tcp -e 1040 -c 1 -i 2 -a 1 -x {0.0 3.0 1 ------- null}
h -t 0.161066666666667 -s 0 -d 1 -p tcp -e 1040 -c 1 -i 2 -a 1 -x {0.0 3.0 -1 ------- null}
+ -t 0.161066666666667 -s 0 -d 1 -p tcp -e 1040 -c 1 -i 3 -a 1 -x {0.0 3.0 2 ------- null}
- -t 0.165226666666667 -s 0 -d 1 -p tcp -e 1040 -c 1 -i 3 -a 1 -x {0.0 3.0 2 ------- null}
h -t 0.165226666666667 -s 0 -d 1 -p tcp -e 1040 -c 1 -i 3 -a 1 -x {0.0 3.0 -1 ------- null}
r -t 0.175226666666667 -s 0 -d 1 -p tcp -e 1040 -c 1 -i 2 -a 1 -x {0.0 3.0 1 ------- null}
+ -t 0.175226666666667 -s 1 -d 2 -p tcp -e 1040 -c 1 -i 2 -a 1 -x {0.0 3.0 1 ------- null}
- -t 0.175226666666667 -s 1 -d 2 -p tcp -e 1040 -c 1 -i 2 -a 1 -x {0.0 3.0 1 ------- null}
h -t 0.175226666666667 -s 1 -d 2 -p tcp -e 1040 -c 1 -i 2 -a 1 -x {0.0 3.0 -1 ------- null}
r -t 0.179386666666667 -s 0 -d 1 -p tcp -e 1040 -c 1 -i 3 -a 1 -x {0.0 3.0 2 ------- null}
+ -t 0.179386666666667 -s 1 -d 2 -p tcp -e 1040 -c 1 -i 3 -a 1 -x {0.0 3.0 2 ------- null}
- -t 0.180773333333333 -s 1 -d 2 -p tcp -e 1040 -c 1 -i 3 -a 1 -x {0.0 3.0 2 ------- null}
h -t 0.180773333333333 -s 1 -d 2 -p tcp -e 1040 -c 1 -i 3 -a 1 -x {0.0 3.0 -1 ------- null}
r -t 0.190773333333333 -s 1 -d 2 -p tcp -e 1040 -c 1 -i 2 -a 1 -x {0.0 3.0 1 ------- null}
+ -t 0.190773333333333 -s 2 -d 3 -p tcp -e 1040 -c 1 -i 2 -a 1 -x {0.0 3.0 1 ------- null}
- -t 0.190773333333333 -s 2 -d 3 -p tcp -e 1040 -c 1 -i 2 -a 1 -x {0.0 3.0 1 ------- null}
h -t 0.190773333333333 -s 2 -d 3 -p tcp -e 1040 -c 1 -i 2 -a 1 -x {0.0 3.0 -1 ------- null}
r -t 0.19632 -s 1 -d 2 -p tcp -e 1040 -c 1 -i 3 -a 1 -x {0.0 3.0 2 ------- null}
+ -t 0.19632 -s 2 -d 3 -p tcp -e 1040 -c 1 -i 3 -a 1 -x {0.0 3.0 2 ------- null}
- -t 0.19632 -s 2 -d 3 -p tcp -e 1040 -c 1 -i 3 -a 1 -x {0.0 3.0 2 ------- null}
h -t 0.19632 -s 2 -d 3 -p tcp -e 1040 -c 1 -i 3 -a 1 -x {0.0 3.0 -1 ------- null}
r -t 0.204933333333333 -s 2 -d 3 -p tcp -e 1040 -c 1 -i 2 -a 1 -x {0.0 3.0 1 ------- null}
+ -t 0.204933333333333 -s 3 -d 2 -p ack -e 40 -c 1 -i 4 -a 1 -x {3.0 0.0 1 ------- null}
- -t 0.204933333333333 -s 3 -d 2 -p ack -e 40 -c 1 -i 4 -a 1 -x {3.0 0.0 1 ------- null}
h -t 0.204933333333333 -s 3 -d 2 -p ack -e 40 -c 1 -i 4 -a 1 -x {3.0 0.0 -1 ------- null}
r -t 0.21048 -s 2 -d 3 -p tcp -e 1040 -c 1 -i 3 -a 1 -x {0.0 3.0 2 ------- null}
+ -t 0.21048 -s 3 -d 2 -p ack -e 40 -c 1 -i 5 -a 1 -x {3.0 0.0 2 ------- null}
- -t 0.21048 -s 3 -d 2 -p ack -e 40 -c 1 -i 5 -a 1 -x {3.0 0.0 2 ------- null}
h -t 0.21048 -s 3 -d 2 -p ack -e 40 -c 1 -i 5 -a 1 -x {3.0 0.0 -1 ------- null}
r -t 0.215093333333333 -s 3 -d 2 -p ack -e 40 -c 1 -i 4 -a 1 -x {3.0 0.0 1 ------- null}
+ -t 0.215093333333333 -s 2 -d 1 -p ack -e 40 -c 1 -i 4 -a 1 -x {3.0 0.0 1 ------- null}
- -t 0.215093333333333 -s 2 -d 1 -p ack -e 40 -c 1 -i 4 -a 1 -x {3.0 0.0 1 ------- null}
h -t 0.215093333333333 -s 2 -d 1 -p ack -e 40 -c 1 -i 4 -a 1 -x {3.0 0.0 -1 ------- null}
r -t 0.22064 -s 3 -d 2 -p ack -e 40 -c 1 -i 5 -a 1 -x {3.0 0.0 2 ------- null}
+ -t 0.22064 -s 2 -d 1 -p ack -e 40 -c 1 -i 5 -a 1 -x {3.0 0.0 2 ------- null}
- -t 0.22064 -s 2 -d 1 -p ack -e 40 -c 1 -i 5 -a 1 -x {3.0 0.0 2 ------- null}
h -t 0.22064 -s 2 -d 1 -p ack -e 40 -c 1 -i 5 -a 1 -x {3.0 0.0 -1 ------- null}
r -t 0.225306666666667 -s 2 -d 1 -p ack -e 40 -c 1 -i 4 -a 1 -x {3.0 0.0 1 ------- null}
+ -t 0.225306666666667 -s 1 -d 0 -p ack -e 40 -c 1 -i 4 -a 1 -x {3.0 0.0 1 ------- null}
- -t 0.225306666666667 -s 1 -d 0 -p ack -e 40 -c 1 -i 4 -a 1 -x {3.0 0.0 1 ------- null}
h -t 0.225306666666667 -s 1 -d 0 -p ack -e 40 -c 1 -i 4 -a 1 -x {3.0 0.0 -1 ------- null}
r -t 0.230853333333333 -s 2 -d 1 -p ack -e 40 -c 1 -i 5 -a 1 -x {3.0 0.0 2 ------- null}
+ -t 0.230853333333333 -s 1 -d 0 -p ack -e 40 -c 1 -i 5 -a 1 -x {3.0 0.0 2 ------- null}
- -t 0.230853333333333 -s 1 -d 0 -p ack -e 40 -c 1 -i 5 -a 1 -x {3.0 0.0 2 ------- null}
h -t 0.230853333333333 -s 1 -d 0 -p ack -e 40 -c 1 -i 5 -a 1 -x {3.0 0.0 -1 ------- null}
r -t 0.235466666666667 -s 1 -d 0 -p ack -e 40 -c 1 -i 4 -a 1 -x {3.0 0.0 1 ------- null}
+ -t 0.235466666666667 -s 0 -d 1 -p tcp -e 1040 -c 1 -i 6 -a 1 -x {0.0 3.0 3 ------- null}
- -t 0.235466666666667 -s 0 -d 1 -p tcp -e 1040 -c 1 -i 6 -a 1 -x {0.0 3.0 3 ------- null}
h -t 0.235466666666667 -s 0 -d 1 -p tcp -e 1040 -c 1 -i 6 -a 1 -x {0.0 3.0 -1 ------- null}
+ -t 0.235466666666667 -s 0 -d 1 -p tcp -e 1040 -c 1 -i 7 -a 1 -x {0.0 3.0 4 ------- null}
- -t 0.239626666666667 -s 0 -d 1 -p tcp -e 1040 -c 1 -i 7 -a 1 -x {0.0 3.0 4 ------- null}
h -t 0.239626666666667 -s 0 -d 1 -p tcp -e 1040 -c 1 -i 7 -a 1 -x {0.0 3.0 -1 ------- null}
r -t 0.241013333333333 -s 1 -d 0 -p ack -e 40 -c 1 -i 5 -a 1 -x {3.0 0.0 2 ------- null}
+ -t 0.241013333333333 -s 0 -d 1 -p tcp -e 1040 -c 1 -i 8 -a 1 -x {0.0 3.0 5 ------- null}
+ -t 0.241013333333333 -s 0 -d 1 -p tcp -e 1040 -c 1 -i 9 -a 1 -x {0.0 3.0 6 ------- null}
- -t 0.243786666666667 -s 0 -d 1 -p tcp -e 1040 -c 1 -i 8 -a 1 -x {0.0 3.0 5 ------- null}
h -t 0.243786666666667 -s 0 -d 1 -p tcp -e 1040 -c 1 -i 8 -a 1 -x {0.0 3.0 -1 ------- null}
- -t 0.247946666666667 -s 0 -d 1 -p tcp -e 1040 -c 1 -i 9 -a 1 -x {0.0 3.0 6 ------- null}
h -t 0.247946666666667 -s 0 -d 1 -p tcp -e 1040 -c 1 -i 9 -a 1 -x {0.0 3.0 -1 ------- null}
r -t 0.249626666666667 -s 0 -d 1 -p tcp -e 1040 -c 1 -i 6 -a 1 -x {0.0 3.0 3 ------- null}
+ -t 0.249626666666667 -s 1 -d 2 -p tcp -e 1040 -c 1 -i 6 -a 1 -x {0.0 3.0 3 ------- null}
- -t 0.249626666666667 -s 1 -d 2 -p tcp -e 1040 -c 1 -i 6 -a 1 -x {0.0 3.0 3 ------- null}
h -t 0.249626666666667 -s 1 -d 2 -p tcp -e 1040 -c 1 -i 6 -a 1 -x {0.0 3.0 -1 ------- null}
r -t 0.253786666666667 -s 0 -d 1 -p tcp -e 1040 -c 1 -i 7 -a 1 -x {0.0 3.0 4 ------- null}
+ -t 0.253786666666667 -s 1 -d 2 -p tcp -e 1040 -c 1 -i 7 -a 1 -x {0.0 3.0 4 ------- null}
- -t 0.255173333333333 -s 1 -d 2 -p tcp -e 1040 -c 1 -i 7 -a 1 -x {0.0 3.0 4 ------- null}
h -t 0.255173333333333 -s 1 -d 2 -p tcp -e 1040 -c 1 -i 7 -a 1 -x {0.0 3.0 -1 ------- null}
r -t 0.257946666666667 -s 0 -d 1 -p tcp -e 1040 -c 1 -i 8 -a 1 -x {0.0 3.0 5 ------- null}
+ -t 0.257946666666667 -s 1 -d 2 -p tcp -e 1040 -c 1 -i 8 -a 1 -x {0.0 3.0 5 ------- null}
- -t 0.26072 -s 1 -d 2 -p tcp -e 1040 -c 1 -i 8 -a 1 -x {0.0 3.0 5 ------- null}
h -t 0.26072 -s 1 -d 2 -p tcp -e 1040 -c 1 -i 8 -a 1 -x {0.0 3.0 -1 ------- null}
r -t 0.262106666666667 -s 0 -d 1 -p tcp -e 1040 -c 1 -i 9 -a 1 -x {0.0 3.0 6 ------- null}
+ -t 0.262106666666667 -s 1 -d 2 -p tcp -e 1040 -c 1 -i 9 -a 1 -x {0.0 3.0 6 ------- null}
r -t 0.265173333333333 -s 1 -d 2 -p tcp -e 1040 -c 1 -i 6 -a 1 -x {0.0 3.0 3 ------- null}
+ -t 0.265173333333333 -s 2 -d 3 -p tcp -e 1040 -c 1 -i 6 -a 1 -x {0.0 3.0 3 ------- null}
- -t 0.265173333333333 -s 2 -d 3 -p tcp -e 1040 -c 1 -i 6 -a 1 -x {0.0 3.0 3 ------- null}
h -t 0.265173333333333 -s 2 -d 3 -p tcp -e 1040 -c 1 -i 6 -a 1 -x {0.0 3.0 -1 ------- null}
- -t 0.266266666666667 -s 1 -d 2 -p tcp -e 1040 -c 1 -i 9 -a 1 -x {0.0 3.0 6 ------- null}
h -t 0.266266666666667 -s 1 -d 2 -p tcp -e 1040 -c 1 -i 9 -a 1 -x {0.0 3.0 -1 ------- null}
r -t 0.27072 -s 1 -d 2 -p tcp -e 1040 -c 1 -i 7 -a 1 -x {0.0 3.0 4 ------- null}
+ -t 0.27072 -s 2 -d 3 -p tcp -e 1040 -c 1 -i 7 -a 1 -x {0.0 3.0 4 ------- null}
- -t 0.27072 -s 2 -d 3 -p tcp -e 1040 -c 1 -i 7 -a 1 -x {0.0 3.0 4 ------- null}
h -t 0.27072 -s 2 -d 3 -p tcp -e 1040 -c 1 -i 7 -a 1 -x {0.0 3.0 -1 ------- null}
r -t 0.276266666666667 -s 1 -d 2 -p tcp -e 1040 -c 1 -i 8 -a 1 -x {0.0 3.0 5 ------- null}
+ -t 0.276266666666667 -s 2 -d 3 -p tcp -e 1040 -c 1 -i 8 -a 1 -x {0.0 3.0 5 ------- null}
- -t 0.276266666666667 -s 2 -d 3 -p tcp -e 1040 -c 1 -i 8 -a 1 -x {0.0 3.0 5 ------- null}
h -t 0.276266666666667 -s 2 -d 3 -p tcp -e 1040 -c 1 -i 8 -a 1 -x {0.0 3.0 -1 ------- null}
r -t 0.279333333333333 -s 2 -d 3 -p tcp -e 1040 -c 1 -i 6 -a 1 -x {0.0 3.0 3 ------- null}
+ -t 0.279333333333333 -s 3 -d 2 -p ack -e 40 -c 1 -i 10 -a 1 -x {3.0 0.0 3 ------- null}
- -t 0.279333333333333 -s 3 -d 2 -p ack -e 40 -c 1 -i 10 -a 1 -x {3.0 0.0 3 ------- null}
h -t 0.279333333333333 -s 3 -d 2 -p ack -e 40 -c 1 -i 10 -a 1 -x {3.0 0.0 -1 ------- null}
r -t 0.281813333333333 -s 1 -d 2 -p tcp -e 1040 -c 1 -i 9 -a 1 -x {0.0 3.0 6 ------- null}
+ -t 0.281813333333333 -s 2 -d 3 -p tcp -e 1040 -c 1 -i 9 -a 1 -x {0.0 3.0 6 ------- null}
- -t 0.281813333333333 -s 2 -d 3 -p tcp -e 1040 -c 1 -i 9 -a 1 -x {0.0 3.0 6 ------- null}
h -t 0.281813333333333 -s 2 -d 3 -p tcp -e 1040 -c 1 -i 9 -a 1 -x {0.0 3.0 -1 ------- null}
r -t 0.28488 -s 2 -d 3 -p tcp -e 1040 -c 1 -i 7 -a 1 -x {0.0 3.0 4 ------- null}
+ -t 0.28488 -s 3 -d 2 -p ack -e 40 -c 1 -i 11 -a 1 -x {3.0 0.0 4 ------- null}
- -t 0.28488 -s 3 -d 2 -p ack -e 40 -c 1 -i 11 -a 1 -x {3.0 0.0 4 ------- null}
h -t 0.28488 -s 3 -d 2 -p ack -e 40 -c 1 -i 11 -a 1 -x {3.0 0.0 -1 ------- null}
r -t 0.289493333333333 -s 3 -d 2 -p ack -e 40 -c 1 -i 10 -a 1 -x {3.0 0.0 3 ------- null}
+ -t 0.289493333333333 -s 2 -d 1 -p ack -e 40 -c 1 -i 10 -a 1 -x {3.0 0.0 3 ------- null}
- -t 0.289493333333333 -s 2 -d 1 -p ack -e 40 -c 1 -i 10 -a 1 -x {3.0 0.0 3 ------- null}
h -t 0.289493333333333 -s 2 -d 1 -p ack -e 40 -c 1 -i 10 -a 1 -x {3.0 0.0 -1 ------- null}
r -t 0.290426666666667 -s 2 -d 3 -p tcp -e 1040 -c 1 -i 8 -a 1 -x {0.0 3.0 5 ------- null}
+ -t 0.290426666666667 -s 3 -d 2 -p ack -e 40 -c 1 -i 12 -a 1 -x {3.0 0.0 5 ------- null}
- -t 0.290426666666667 -s 3 -d 2 -p ack -e 40 -c 1 -i 12 -a 1 -x {3.0 0.0 5 ------- null}
h -t 0.290426666666667 -s 3 -d 2 -p ack -e 40 -c 1 -i 12 -a 1 -x {3.0 0.0 -1 ------- null}
r -t 0.29504 -s 3 -d 2 -p ack -e 40 -c 1 -i 11 -a 1 -x {3.0 0.0 4 ------- null}
+ -t 0.29504 -s 2 -d 1 -p ack -e 40 -c 1 -i 11 -a 1 -x {3.0 0.0 4 ------- null}
- -t 0.29504 -s 2 -d 1 -p ack -e 40 -c 1 -i 11 -a 1 -x {3.0 0.0 4 ------- null}
h -t 0.29504 -s 2 -d 1 -p ack -e 40 -c 1 -i 11 -a 1 -x {3.0 0.0 -1 ------- null}
r -t 0.295973333333333 -s 2 -d 3 -p tcp -e 1040 -c 1 -i 9 -a 1 -x {0.0 3.0 6 ------- null}
+ -t 0.295973333333333 -s 3 -d 2 -p ack -e 40 -c 1 -i 13 -a 1 -x {3.0 0.0 6 ------- null}
- -t 0.295973333333333 -s 3 -d 2 -p ack -e 40 -c 1 -i 13 -a 1 -x {3.0 0.0 6 ------- null}
h -t 0.295973333333333 -s 3 -d 2 -p ack -e 40 -c 1 -i 13 -a 1 -x {3.0 0.0 -1 ------- null}
r -t 0.299706666666667 -s 2 -d 1 -p ack -e 40 -c 1 -i 10 -a 1 -x {3.0 0.0 3 ------- null}
+ -t 0.299706666666667 -s 1 -d 0 -p ack -e 40 -c 1 -i 10 -a 1 -x {3.0 0.0 3 ------- null}
- -t 0.299706666666667 -s 1 -d 0 -p ack -e 40 -c 1 -i 10 -a 1 -x {3.0 0.0 3 ------- null}
h -t 0.299706666666667 -s 1 -d 0 -p ack -e 40 -c 1 -i 10 -a 1 -x {3.0 0.0 -1 ------- null}
+ -t 0.3 -s 4 -d 1 -p cbr -e 500 -c 2 -i 14 -a 2 -x {4.0 5.0 0 ------- null}
- -t 0.3 -s 4 -d 1 -p cbr -e 500 -c 2 -i 14 -a 2 -x {4.0 5.0 0 ------- null}
h -t 0.3 -s 4 -d 1 -p cbr -e 500 -c 2 -i 14 -a 2 -x {4.0 5.0 -1 ------- null}
r -t 0.300586666666667 -s 3 -d 2 -p ack -e 40 -c 1 -i 12 -a 1 -x {3.0 0.0 5 ------- null}
+ -t 0.300586666666667 -s 2 -d 1 -p ack -e 40 -c 1 -i 12 -a 1 -x {3.0 0.0 5 ------- null}
- -t 0.300586666666667 -s 2 -d 1 -p ack -e 40 -c 1 -i 12 -a 1 -x {3.0 0.0 5 ------- null}
h -t 0.300586666666667 -s 2 -d 1 -p ack -e 40 -c 1 -i 12 -a 1 -x {3.0 0.0 -1 ------- null}
+ -t 0.304 -s 4 -d 1 -p cbr -e 500 -c 2 -i 15 -a 2 -x {4.0 5.0 1 ------- null}
- -t 0.304 -s 4 -d 1 -p cbr -e 500 -c 2 -i 15 -a 2 -x {4.0 5.0 1 ------- null}
h -t 0.304 -s 4 -d 1 -p cbr -e 500 -c 2 -i 15 -a 2 -x {4.0 5.0 -1 ------- null}
r -t 0.305253333333333 -s 2 -d 1 -p ack -e 40 -c 1 -i 11 -a 1 -x {3.0 0.0 4 ------- null}
+ -t 0.305253333333333 -s 1 -d 0 -p ack -e 40 -c 1 -i 11 -a 1 -x {3.0 0.0 4 ------- null}
- -t 0.305253333333333 -s 1 -d 0 -p ack -e 40 -c 1 -i 11 -a 1 -x {3.0 0.0 4 ------- null}
h -t 0.305253333333333 -s 1 -d 0 -p ack -e 40 -c 1 -i 11 -a 1 -x {3.0 0.0 -1 ------- null}
r -t 0.306133333333333 -s 3 -d 2 -p ack -e 40 -c 1 -i 13 -a 1 -x {3.0 0.0 6 ------- null}
+ -t 0.306133333333333 -s 2 -d 1 -p ack -e 40 -c 1 -i 13 -a 1 -x {3.0 0.0 6 ------- null}
- -t 0.306133333333333 -s 2 -d 1 -p ack -e 40 -c 1 -i 13 -a 1 -x {3.0 0.0 6 ------- null}
h -t 0.306133333333333 -s 2 -d 1 -p ack -e 40 -c 1 -i 13 -a 1 -x {3.0 0.0 -1 ------- null}
+ -t 0.308 -s 4 -d 1 -p cbr -e 500 -c 2 -i 16 -a 2 -x {4.0 5.0 2 ------- null}
- -t 0.308 -s 4 -d 1 -p cbr -e 500 -c 2 -i 16 -a 2 -x {4.0 5.0 2 ------- null}
h -t 0.308 -s 4 -d 1 -p cbr -e 500 -c 2 -i 16 -a 2 -x {4.0 5.0 -1 ------- null}
r -t 0.309866666666667 -s 1 -d 0 -p ack -e 40 -c 1 -i 10 -a 1 -x {3.0 0.0 3 ------- null}
+ -t 0.309866666666667 -s 0 -d 1 -p tcp -e 1040 -c 1 -i 17 -a 1 -x {0.0 3.0 7 ------- null}
- -t 0.309866666666667 -s 0 -d 1 -p tcp -e 1040 -c 1 -i 17 -a 1 -x {0.0 3.0 7 ------- null}
h -t 0.309866666666667 -s 0 -d 1 -p tcp -e 1040 -c 1 -i 17 -a 1 -x {0.0 3.0 -1 ------- null}
+ -t 0.309866666666667 -s 0 -d 1 -p tcp -e 1040 -c 1 -i 18 -a 1 -x {0.0 3.0 8 ------- null}
r -t 0.3108 -s 2 -d 1 -p ack -e 40 -c 1 -i 12 -a 1 -x {3.0 0.0 5 ------- null}
+ -t 0.3108 -s 1 -d 0 -p ack -e 40 -c 1 -i 12 -a 1 -x {3.0 0.0 5 ------- null}
- -t 0.3108 -s 1 -d 0 -p ack -e 40 -c 1 -i 12 -a 1 -x {3.0 0.0 5 ------- null}
h -t 0.3108 -s 1 -d 0 -p ack -e 40 -c 1 -i 12 -a 1 -x {3.0 0.0 -1 ------- null}
r -t 0.312 -s 4 -d 1 -p cbr -e 500 -c 2 -i 14 -a 2 -x {4.0 5.0 0 ------- null}
+ -t 0.312 -s 1 -d 2 -p cbr -e 500 -c 2 -i 14 -a 2 -x {4.0 5.0 0 ------- null}
- -t 0.312 -s 1 -d 2 -p cbr -e 500 -c 2 -i 14 -a 2 -x {4.0 5.0 0 ------- null}
h -t 0.312 -s 1 -d 2 -p cbr -e 500 -c 2 -i 14 -a 2 -x {4.0 5.0 -1 ------- null}
+ -t 0.312 -s 4 -d 1 -p cbr -e 500 -c 2 -i 19 -a 2 -x {4.0 5.0 3 ------- null}
- -t 0.312 -s 4 -d 1 -p cbr -e 500 -c 2 -i 19 -a 2 -x {4.0 5.0 3 ------- null}
h -t 0.312 -s 4 -d 1 -p cbr -e 500 -c 2 -i 19 -a 2 -x {4.0 5.0 -1 ------- null}
- -t 0.314026666666667 -s 0 -d 1 -p tcp -e 1040 -c 1 -i 18 -a 1 -x {0.0 3.0 8 ------- null}
h -t 0.314026666666667 -s 0 -d 1 -p tcp -e 1040 -c 1 -i 18 -a 1 -x {0.0 3.0 -1 ------- null}
r -t 0.315413333333333 -s 1 -d 0 -p ack -e 40 -c 1 -i 11 -a 1 -x {3.0 0.0 4 ------- null}
+ -t 0.315413333333333 -s 0 -d 1 -p tcp -e 1040 -c 1 -i 20 -a 1 -x {0.0 3.0 9 ------- null}
+ -t 0.315413333333333 -s 0 -d 1 -p tcp -e 1040 -c 1 -i 21 -a 1 -x {0.0 3.0 10 ------- null}
r -t 0.316 -s 4 -d 1 -p cbr -e 500 -c 2 -i 15 -a 2 -x {4.0 5.0 1 ------- null}
+ -t 0.316 -s 1 -d 2 -p cbr -e 500 -c 2 -i 15 -a 2 -x {4.0 5.0 1 ------- null}
- -t 0.316 -s 1 -d 2 -p cbr -e 500 -c 2 -i 15 -a 2 -x {4.0 5.0 1 ------- null}
h -t 0.316 -s 1 -d 2 -p cbr -e 500 -c 2 -i 15 -a 2 -x {4.0 5.0 -1 ------- null}
+ -t 0.316 -s 4 -d 1 -p cbr -e 500 -c 2 -i 22 -a 2 -x {4.0 5.0 4 ------- null}
- -t 0.316 -s 4 -d 1 -p cbr -e 500 -c 2 -i 22 -a 2 -x {4.0 5.0 4 ------- null}
h -t 0.316 -s 4 -d 1 -p cbr -e 500 -c 2 -i 22 -a 2 -x {4.0 5.0 -1 ------- null}
r -t 0.316346666666667 -s 2 -d 1 -p ack -e 40 -c 1 -i 13 -a 1 -x {3.0 0.0 6 ------- null}
+ -t 0.316346666666667 -s 1 -d 0 -p ack -e 40 -c 1 -i 13 -a 1 -x {3.0 0.0 6 ------- null}
- -t 0.316346666666667 -s 1 -d 0 -p ack -e 40 -c 1 -i 13 -a 1 -x {3.0 0.0 6 ------- null}
h -t 0.316346666666667 -s 1 -d 0 -p ack -e 40 -c 1 -i 13 -a 1 -x {3.0 0.0 -1 ------- null}
- -t 0.318186666666667 -s 0 -d 1 -p tcp -e 1040 -c 1 -i 20 -a 1 -x {0.0 3.0 9 ------- null}
h -t 0.318186666666667 -s 0 -d 1 -p tcp -e 1040 -c 1 -i 20 -a 1 -x {0.0 3.0 -1 ------- null}
r -t 0.32 -s 4 -d 1 -p cbr -e 500 -c 2 -i 16 -a 2 -x {4.0 5.0 2 ------- null}
+ -t 0.32 -s 1 -d 2 -p cbr -e 500 -c 2 -i 16 -a 2 -x {4.0 5.0 2 ------- null}
- -t 0.32 -s 1 -d 2 -p cbr -e 500 -c 2 -i 16 -a 2 -x {4.0 5.0 2 ------- null}
h -t 0.32 -s 1 -d 2 -p cbr -e 500 -c 2 -i 16 -a 2 -x {4.0 5.0 -1 ------- null}
+ -t 0.32 -s 4 -d 1 -p cbr -e 500 -c 2 -i 23 -a 2 -x {4.0 5.0 5 ------- null}
- -t 0.32 -s 4 -d 1 -p cbr -e 500 -c 2 -i 23 -a 2 -x {4.0 5.0 5 ------- null}
h -t 0.32 -s 4 -d 1 -p cbr -e 500 -c 2 -i 23 -a 2 -x {4.0 5.0 -1 ------- null}
r -t 0.32096 -s 1 -d 0 -p ack -e 40 -c 1 -i 12 -a 1 -x {3.0 0.0 5 ------- null}
+ -t 0.32096 -s 0 -d 1 -p tcp -e 1040 -c 1 -i 24 -a 1 -x {0.0 3.0 11 ------- null}
+ -t 0.32096 -s 0 -d 1 -p tcp -e 1040 -c 1 -i 25 -a 1 -x {0.0 3.0 12 ------- null}
- -t 0.322346666666667 -s 0 -d 1 -p tcp -e 1040 -c 1 -i 21 -a 1 -x {0.0 3.0 10 ------- null}
h -t 0.322346666666667 -s 0 -d 1 -p tcp -e 1040 -c 1 -i 21 -a 1 -x {0.0 3.0 -1 ------- null}
r -t 0.324 -s 4 -d 1 -p cbr -e 500 -c 2 -i 19 -a 2 -x {4.0 5.0 3 ------- null}
+ -t 0.324 -s 1 -d 2 -p cbr -e 500 -c 2 -i 19 -a 2 -x {4.0 5.0 3 ------- null}
- -t 0.324 -s 1 -d 2 -p cbr -e 500 -c 2 -i 19 -a 2 -x {4.0 5.0 3 ------- null}
h -t 0.324 -s 1 -d 2 -p cbr -e 500 -c 2 -i 19 -a 2 -x {4.0 5.0 -1 ------- null}
+ -t 0.324 -s 4 -d 1 -p cbr -e 500 -c 2 -i 26 -a 2 -x {4.0 5.0 6 ------- null}
- -t 0.324 -s 4 -d 1 -p cbr -e 500 -c 2 -i 26 -a 2 -x {4.0 5.0 6 ------- null}
h -t 0.324 -s 4 -d 1 -p cbr -e 500 -c 2 -i 26 -a 2 -x {4.0 5.0 -1 ------- null}
r -t 0.324026666666667 -s 0 -d 1 -p tcp -e 1040 -c 1 -i 17 -a 1 -x {0.0 3.0 7 ------- null}
+ -t 0.324026666666667 -s 1 -d 2 -p tcp -e 1040 -c 1 -i 17 -a 1 -x {0.0 3.0 7 ------- null}
r -t 0.324666666666667 -s 1 -d 2 -p cbr -e 500 -c 2 -i 14 -a 2 -x {4.0 5.0 0 ------- null}
+ -t 0.324666666666667 -s 2 -d 5 -p cbr -e 500 -c 2 -i 14 -a 2 -x {4.0 5.0 0 ------- null}
- -t 0.324666666666667 -s 2 -d 5 -p cbr -e 500 -c 2 -i 14 -a 2 -x {4.0 5.0 0 ------- null}
h -t 0.324666666666667 -s 2 -d 5 -p cbr -e 500 -c 2 -i 14 -a 2 -x {4.0 5.0 -1 ------- null}
r -t 0.326506666666667 -s 1 -d 0 -p ack -e 40 -c 1 -i 13 -a 1 -x {3.0 0.0 6 ------- null}
+ -t 0.326506666666667 -s 0 -d 1 -p tcp -e 1040 -c 1 -i 27 -a 1 -x {0.0 3.0 13 ------- null}
+ -t 0.326506666666667 -s 0 -d 1 -p tcp -e 1040 -c 1 -i 28 -a 1 -x {0.0 3.0 14 ------- null}
- -t 0.326506666666667 -s 0 -d 1 -p tcp -e 1040 -c 1 -i 24 -a 1 -x {0.0 3.0 11 ------- null}
h -t 0.326506666666667 -s 0 -d 1 -p tcp -e 1040 -c 1 -i 24 -a 1 -x {0.0 3.0 -1 ------- null}
- -t 0.326666666666667 -s 1 -d 2 -p tcp -e 1040 -c 1 -i 17 -a 1 -x {0.0 3.0 7 ------- null}
h -t 0.326666666666667 -s 1 -d 2 -p tcp -e 1040 -c 1 -i 17 -a 1 -x {0.0 3.0 -1 ------- null}
r -t 0.328 -s 4 -d 1 -p cbr -e 500 -c 2 -i 22 -a 2 -x {4.0 5.0 4 ------- null}
+ -t 0.328 -s 1 -d 2 -p cbr -e 500 -c 2 -i 22 -a 2 -x {4.0 5.0 4 ------- null}
+ -t 0.328 -s 4 -d 1 -p cbr -e 500 -c 2 -i 29 -a 2 -x {4.0 5.0 7 ------- null}
- -t 0.328 -s 4 -d 1 -p cbr -e 500 -c 2 -i 29 -a 2 -x {4.0 5.0 7 ------- null}
h -t 0.328 -s 4 -d 1 -p cbr -e 500 -c 2 -i 29 -a 2 -x {4.0 5.0 -1 ------- null}
r -t 0.328186666666667 -s 0 -d 1 -p tcp -e 1040 -c 1 -i 18 -a 1 -x {0.0 3.0 8 ------- null}
+ -t 0.328186666666667 -s 1 -d 2 -p tcp -e 1040 -c 1 -i 18 -a 1 -x {0.0 3.0 8 ------- null}
r -t 0.328666666666667 -s 1 -d 2 -p cbr -e 500 -c 2 -i 15 -a 2 -x {4.0 5.0 1 ------- null}
+ -t 0.328666666666667 -s 2 -d 5 -p cbr -e 500 -c 2 -i 15 -a 2 -x {4.0 5.0 1 ------- null}
- -t 0.328666666666667 -s 2 -d 5 -p cbr -e 500 -c 2 -i 15 -a 2 -x {4.0 5.0 1 ------- null}
h -t 0.328666666666667 -s 2 -d 5 -p cbr -e 500 -c 2 -i 15 -a 2 -x {4.0 5.0 -1 ------- null}
- -t 0.330666666666667 -s 0 -d 1 -p tcp -e 1040 -c 1 -i 25 -a 1 -x {0.0 3.0 12 ------- null}
h -t 0.330666666666667 -s 0 -d 1 -p tcp -e 1040 -c 1 -i 25 -a 1 -x {0.0 3.0 -1 ------- null}
r -t 0.332 -s 4 -d 1 -p cbr -e 500 -c 2 -i 23 -a 2 -x {4.0 5.0 5 ------- null}
+ -t 0.332 -s 1 -d 2 -p cbr -e 500 -c 2 -i 23 -a 2 -x {4.0 5.0 5 ------- null}
+ -t 0.332 -s 4 -d 1 -p cbr -e 500 -c 2 -i 30 -a 2 -x {4.0 5.0 8 ------- null}
- -t 0.332 -s 4 -d 1 -p cbr -e 500 -c 2 -i 30 -a 2 -x {4.0 5.0 8 ------- null}
h -t 0.332 -s 4 -d 1 -p cbr -e 500 -c 2 -i 30 -a 2 -x {4.0 5.0 -1 ------- null}
- -t 0.332213333333333 -s 1 -d 2 -p cbr -e 500 -c 2 -i 22 -a 2 -x {4.0 5.0 4 ------- null}
h -t 0.332213333333333 -s 1 -d 2 -p cbr -e 500 -c 2 -i 22 -a 2 -x {4.0 5.0 -1 ------- null}
r -t 0.332346666666667 -s 0 -d 1 -p tcp -e 1040 -c 1 -i 20 -a 1 -x {0.0 3.0 9 ------- null}
+ -t 0.332346666666667 -s 1 -d 2 -p tcp -e 1040 -c 1 -i 20 -a 1 -x {0.0 3.0 9 ------- null}
r -t 0.332666666666667 -s 1 -d 2 -p cbr -e 500 -c 2 -i 16 -a 2 -x {4.0 5.0 2 ------- null}
+ -t 0.332666666666667 -s 2 -d 5 -p cbr -e 500 -c 2 -i 16 -a 2 -x {4.0 5.0 2 ------- null}
- -t 0.332666666666667 -s 2 -d 5 -p cbr -e 500 -c 2 -i 16 -a 2 -x {4.0 5.0 2 ------- null}
h -t 0.332666666666667 -s 2 -d 5 -p cbr -e 500 -c 2 -i 16 -a 2 -x {4.0 5.0 -1 ------- null}
- -t 0.334826666666667 -s 0 -d 1 -p tcp -e 1040 -c 1 -i 27 -a 1 -x {0.0 3.0 13 ------- null}
h -t 0.334826666666667 -s 0 -d 1 -p tcp -e 1040 -c 1 -i 27 -a 1 -x {0.0 3.0 -1 ------- null}
- -t 0.33488 -s 1 -d 2 -p tcp -e 1040 -c 1 -i 18 -a 1 -x {0.0 3.0 8 ------- null}
h -t 0.33488 -s 1 -d 2 -p tcp -e 1040 -c 1 -i 18 -a 1 -x {0.0 3.0 -1 ------- null}
r -t 0.336 -s 4 -d 1 -p cbr -e 500 -c 2 -i 26 -a 2 -x {4.0 5.0 6 ------- null}
+ -t 0.336 -s 1 -d 2 -p cbr -e 500 -c 2 -i 26 -a 2 -x {4.0 5.0 6 ------- null}
+ -t 0.336 -s 4 -d 1 -p cbr -e 500 -c 2 -i 31 -a 2 -x {4.0 5.0 9 ------- null}
- -t 0.336 -s 4 -d 1 -p cbr -e 500 -c 2 -i 31 -a 2 -x {4.0 5.0 9 ------- null}
h -t 0.336 -s 4 -d 1 -p cbr -e 500 -c 2 -i 31 -a 2 -x {4.0 5.0 -1 ------- null}
r -t 0.336506666666667 -s 0 -d 1 -p tcp -e 1040 -c 1 -i 21 -a 1 -x {0.0 3.0 10 ------- null}
+ -t 0.336506666666667 -s 1 -d 2 -p tcp -e 1040 -c 1 -i 21 -a 1 -x {0.0 3.0 10 ------- null}
r -t 0.336666666666667 -s 1 -d 2 -p cbr -e 500 -c 2 -i 19 -a 2 -x {4.0 5.0 3 ------- null}
+ -t 0.336666666666667 -s 2 -d 5 -p cbr -e 500 -c 2 -i 19 -a 2 -x {4.0 5.0 3 ------- null}
- -t 0.336666666666667 -s 2 -d 5 -p cbr -e 500 -c 2 -i 19 -a 2 -x {4.0 5.0 3 ------- null}
h -t 0.336666666666667 -s 2 -d 5 -p cbr -e 500 -c 2 -i 19 -a 2 -x {4.0 5.0 -1 ------- null}
r -t 0.336666666666667 -s 2 -d 5 -p cbr -e 500 -c 2 -i 14 -a 2 -x {4.0 5.0 0 ------- null}
- -t 0.338986666666667 -s 0 -d 1 -p tcp -e 1040 -c 1 -i 28 -a 1 -x {0.0 3.0 14 ------- null}
h -t 0.338986666666667 -s 0 -d 1 -p tcp -e 1040 -c 1 -i 28 -a 1 -x {0.0 3.0 -1 ------- null}
r -t 0.34 -s 4 -d 1 -p cbr -e 500 -c 2 -i 29 -a 2 -x {4.0 5.0 7 ------- null}
+ -t 0.34 -s 1 -d 2 -p cbr -e 500 -c 2 -i 29 -a 2 -x {4.0 5.0 7 ------- null}
+ -t 0.34 -s 4 -d 1 -p cbr -e 500 -c 2 -i 32 -a 2 -x {4.0 5.0 10 ------- null}
- -t 0.34 -s 4 -d 1 -p cbr -e 500 -c 2 -i 32 -a 2 -x {4.0 5.0 10 ------- null}
h -t 0.34 -s 4 -d 1 -p cbr -e 500 -c 2 -i 32 -a 2 -x {4.0 5.0 -1 ------- null}
- -t 0.340426666666667 -s 1 -d 2 -p cbr -e 500 -c 2 -i 23 -a 2 -x {4.0 5.0 5 ------- null}
h -t 0.340426666666667 -s 1 -d 2 -p cbr -e 500 -c 2 -i 23 -a 2 -x {4.0 5.0 -1 ------- null}
r -t 0.340666666666667 -s 2 -d 5 -p cbr -e 500 -c 2 -i 15 -a 2 -x {4.0 5.0 1 ------- null}
r -t 0.340666666666667 -s 0 -d 1 -p tcp -e 1040 -c 1 -i 24 -a 1 -x {0.0 3.0 11 ------- null}
+ -t 0.340666666666667 -s 1 -d 2 -p tcp -e 1040 -c 1 -i 24 -a 1 -x {0.0 3.0 11 ------- null}
r -t 0.342213333333333 -s 1 -d 2 -p tcp -e 1040 -c 1 -i 17 -a 1 -x {0.0 3.0 7 ------- null}
+ -t 0.342213333333333 -s 2 -d 3 -p tcp -e 1040 -c 1 -i 17 -a 1 -x {0.0 3.0 7 ------- null}
- -t 0.342213333333333 -s 2 -d 3 -p tcp -e 1040 -c 1 -i 17 -a 1 -x {0.0 3.0 7 ------- null}
h -t 0.342213333333333 -s 2 -d 3 -p tcp -e 1040 -c 1 -i 17 -a 1 -x {0.0 3.0 -1 ------- null}
- -t 0.343093333333333 -s 1 -d 2 -p tcp -e 1040 -c 1 -i 20 -a 1 -x {0.0 3.0 9 ------- null}
h -t 0.343093333333333 -s 1 -d 2 -p tcp -e 1040 -c 1 -i 20 -a 1 -x {0.0 3.0 -1 ------- null}
r -t 0.344 -s 4 -d 1 -p cbr -e 500 -c 2 -i 30 -a 2 -x {4.0 5.0 8 ------- null}
+ -t 0.344 -s 1 -d 2 -p cbr -e 500 -c 2 -i 30 -a 2 -x {4.0 5.0 8 ------- null}
+ -t 0.344 -s 4 -d 1 -p cbr -e 500 -c 2 -i 33 -a 2 -x {4.0 5.0 11 ------- null}
- -t 0.344 -s 4 -d 1 -p cbr -e 500 -c 2 -i 33 -a 2 -x {4.0 5.0 11 ------- null}
h -t 0.344 -s 4 -d 1 -p cbr -e 500 -c 2 -i 33 -a 2 -x {4.0 5.0 -1 ------- null}
r -t 0.344666666666667 -s 2 -d 5 -p cbr -e 500 -c 2 -i 16 -a 2 -x {4.0 5.0 2 ------- null}
r -t 0.344826666666667 -s 0 -d 1 -p tcp -e 1040 -c 1 -i 25 -a 1 -x {0.0 3.0 12 ------- null}
+ -t 0.344826666666667 -s 1 -d 2 -p tcp -e 1040 -c 1 -i 25 -a 1 -x {0.0 3.0 12 ------- null}
r -t 0.34488 -s 1 -d 2 -p cbr -e 500 -c 2 -i 22 -a 2 -x {4.0 5.0 4 ------- null}
+ -t 0.34488 -s 2 -d 5 -p cbr -e 500 -c 2 -i 22 -a 2 -x {4.0 5.0 4 ------- null}
- -t 0.34488 -s 2 -d 5 -p cbr -e 500 -c 2 -i 22 -a 2 -x {4.0 5.0 4 ------- null}
h -t 0.34488 -s 2 -d 5 -p cbr -e 500 -c 2 -i 22 -a 2 -x {4.0 5.0 -1 ------- null}
r -t 0.348 -s 4 -d 1 -p cbr -e 500 -c 2 -i 31 -a 2 -x {4.0 5.0 9 ------- null}
+ -t 0.348 -s 1 -d 2 -p cbr -e 500 -c 2 -i 31 -a 2 -x {4.0 5.0 9 ------- null}
+ -t 0.348 -s 4 -d 1 -p cbr -e 500 -c 2 -i 34 -a 2 -x {4.0 5.0 12 ------- null}
- -t 0.348 -s 4 -d 1 -p cbr -e 500 -c 2 -i 34 -a 2 -x {4.0 5.0 12 ------- null}
h -t 0.348 -s 4 -d 1 -p cbr -e 500 -c 2 -i 34 -a 2 -x {4.0 5.0 -1 ------- null}
- -t 0.34864 -s 1 -d 2 -p cbr -e 500 -c 2 -i 26 -a 2 -x {4.0 5.0 6 ------- null}
h -t 0.34864 -s 1 -d 2 -p cbr -e 500 -c 2 -i 26 -a 2 -x {4.0 5.0 -1 ------- null}
r -t 0.348666666666667 -s 2 -d 5 -p cbr -e 500 -c 2 -i 19 -a 2 -x {4.0 5.0 3 ------- null}
r -t 0.348986666666667 -s 0 -d 1 -p tcp -e 1040 -c 1 -i 27 -a 1 -x {0.0 3.0 13 ------- null}
+ -t 0.348986666666667 -s 1 -d 2 -p tcp -e 1040 -c 1 -i 27 -a 1 -x {0.0 3.0 13 ------- null}
r -t 0.350426666666667 -s 1 -d 2 -p tcp -e 1040 -c 1 -i 18 -a 1 -x {0.0 3.0 8 ------- null}
+ -t 0.350426666666667 -s 2 -d 3 -p tcp -e 1040 -c 1 -i 18 -a 1 -x {0.0 3.0 8 ------- null}
- -t 0.350426666666667 -s 2 -d 3 -p tcp -e 1040 -c 1 -i 18 -a 1 -x {0.0 3.0 8 ------- null}
h -t 0.350426666666667 -s 2 -d 3 -p tcp -e 1040 -c 1 -i 18 -a 1 -x {0.0 3.0 -1 ------- null}
- -t 0.351306666666667 -s 1 -d 2 -p tcp -e 1040 -c 1 -i 21 -a 1 -x {0.0 3.0 10 ------- null}
h -t 0.351306666666667 -s 1 -d 2 -p tcp -e 1040 -c 1 -i 21 -a 1 -x {0.0 3.0 -1 ------- null}
r -t 0.352 -s 4 -d 1 -p cbr -e 500 -c 2 -i 32 -a 2 -x {4.0 5.0 10 ------- null}
+ -t 0.352 -s 1 -d 2 -p cbr -e 500 -c 2 -i 32 -a 2 -x {4.0 5.0 10 ------- null}
+ -t 0.352 -s 4 -d 1 -p cbr -e 500 -c 2 -i 35 -a 2 -x {4.0 5.0 13 ------- null}
- -t 0.352 -s 4 -d 1 -p cbr -e 500 -c 2 -i 35 -a 2 -x {4.0 5.0 13 ------- null}
h -t 0.352 -s 4 -d 1 -p cbr -e 500 -c 2 -i 35 -a 2 -x {4.0 5.0 -1 ------- null}
r -t 0.353093333333333 -s 1 -d 2 -p cbr -e 500 -c 2 -i 23 -a 2 -x {4.0 5.0 5 ------- null}
+ -t 0.353093333333333 -s 2 -d 5 -p cbr -e 500 -c 2 -i 23 -a 2 -x {4.0 5.0 5 ------- null}
- -t 0.353093333333333 -s 2 -d 5 -p cbr -e 500 -c 2 -i 23 -a 2 -x {4.0 5.0 5 ------- null}
h -t 0.353093333333333 -s 2 -d 5 -p cbr -e 500 -c 2 -i 23 -a 2 -x {4.0 5.0 -1 ------- null}
r -t 0.353146666666667 -s 0 -d 1 -p tcp -e 1040 -c 1 -i 28 -a 1 -x {0.0 3.0 14 ------- null}
+ -t 0.353146666666667 -s 1 -d 2 -p tcp -e 1040 -c 1 -i 28 -a 1 -x {0.0 3.0 14 ------- null}
r -t 0.356 -s 4 -d 1 -p cbr -e 500 -c 2 -i 33 -a 2 -x {4.0 5.0 11 ------- null}
+ -t 0.356 -s 1 -d 2 -p cbr -e 500 -c 2 -i 33 -a 2 -x {4.0 5.0 11 ------- null}
+ -t 0.356 -s 4 -d 1 -p cbr -e 500 -c 2 -i 36 -a 2 -x {4.0 5.0 14 ------- null}
- -t 0.356 -s 4 -d 1 -p cbr -e 500 -c 2 -i 36 -a 2 -x {4.0 5.0 14 ------- null}
h -t 0.356 -s 4 -d 1 -p cbr -e 500 -c 2 -i 36 -a 2 -x {4.0 5.0 -1 ------- null}
r -t 0.356373333333333 -s 2 -d 3 -p tcp -e 1040 -c 1 -i 17 -a 1 -x {0.0 3.0 7 ------- null}