V -t * -v 1.0a5 -a 0
A -t * -n 1 -p 0 -o 0x7fffffff -c 30 -a 1
A -t * -h 1 -m 1073741823 -s 0
c -t * -i 4 -n yellow
c -t * -i 1 -n blue
c -t * -i 2 -n red
c -t * -i 3 -n green
n -t * -a 0 -s 0 -S UP -v circle -c black -i black
n -t * -a 1 -s 1 -S UP -v circle -c black -i black
n -t * -a 2 -s 2 -S UP -v circle -c black -i black
n -t * -a 3 -s 3 -S UP -v circle -c black -i black
l -t * -s 0 -d 2 -S UP -r 2000000 -D 0.02 -c black -o right-down
l -t * -s 1 -d 2 -S UP -r 2000000 -D 0.02 -c black -o right-up
l -t * -s 2 -d 3 -S UP -r 1000000 -D 0.02 -c black -o right
q -t * -s 3 -d 2 -a 0.5
q -t * -s 2 -d 3 -a 0.5
+ -t 0.25 -s 0 -d 2 -p tcp -e 40 -c 1 -i 0 -a 1 -x {0.0 3.0 0 ------- null}
- -t 0.25 -s 0 -d 2 -p tcp -e 40 -c 1 -i 0 -a 1 -x {0.0 3.0 0 ------- null}
h -t 0.25 -s 0 -d 2 -p tcp -e 40 -c 1 -i 0 -a 1 -x {0.0 3.0 -1 ------- null}
+ -t 0.25 -s 1 -d 2 -p cbr -e 1000 -c 2 -i 1 -a 2 -x {1.0 3.1 0 ------- null}
- -t 0.25 -s 1 -d 2 -p cbr -e 1000 -c 2 -i 1 -a 2 -x {1.0 3.1 0 ------- null}
h -t 0.25 -s 1 -d 2 -p cbr -e 1000 -c 2 -i 1 -a 2 -x {1.0 3.1 -1 ------- null}
+ -t 0.25 -s 1 -d 2 -p cbr -e 500 -c 2 -i 2 -a 2 -x {1.0 3.1 1 ------- null}
- -t 0.254 -s 1 -d 2 -p cbr -e 500 -c 2 -i 2 -a 2 -x {1.0 3.1 1 ------- null}
h -t 0.254 -s 1 -d 2 -p cbr -e 500 -c 2 -i 2 -a 2 -x {1.0 3.1 -1 ------- null}
r -t 0.27016 -s 0 -d 2 -p tcp -e 40 -c 1 -i 0 -a 1 -x {0.0 3.0 0 ------- null}
+ -t 0.27016 -s 2 -d 3 -p tcp -e 40 -c 1 -i 0 -a 1 -x {0.0 3.0 0 ------- null}
- -t 0.27016 -s 2 -d 3 -p tcp -e 40 -c 1 -i 0 -a 1 -x {0.0 3.0 0 ------- null}
h -t 0.27016 -s 2 -d 3 -p tcp -e 40 -c 1 -i 0 -a 1 -x {0.0 3.0 -1 ------- null}
r -t 0.274 -s 1 -d 2 -p cbr -e 1000 -c 2 -i 1 -a 2 -x {1.0 3.1 0 ------- null}
+ -t 0.274 -s 2 -d 3 -p cbr -e 1000 -c 2 -i 1 -a 2 -x {1.0 3.1 0 ------- null}
- -t 0.274 -s 2 -d 3 -p cbr -e 1000 -c 2 -i 1 -a 2 -x {1.0 3.1 0 ------- null}
h -t 0.274 -s 2 -d 3 -p cbr -e 1000 -c 2 -i 1 -a 2 -x {1.0 3.1 -1 ------- null}
r -t 0.276 -s 1 -d 2 -p cbr -e 500 -c 2 -i 2 -a 2 -x {1.0 3.1 1 ------- null}
+ -t 0.276 -s 2 -d 3 -p cbr -e 500 -c 2 -i 2 -a 2 -x {1.0 3.1 1 ------- null}
- -t 0.282 -s 2 -d 3 -p cbr -e 500 -c 2 -i 2 -a 2 -x {1.0 3.1 1 ------- null}
h -t 0.282 -s 2 -d 3 -p cbr -e 500 -c 2 -i 2 -a 2 -x {1.0 3.1 -1 ------- null}
r -t 0.29048 -s 2 -d 3 -p tcp -e 40 -c 1 -i 0 -a 1 -x {0.0 3.0 0 ------- null}
+ -t 0.29048 -s 3 -d 2 -p ack -e 40 -c 1 -i 3 -a 1 -x {3.0 0.0 0 ------- null}
- -t 0.29048 -s 3 -d 2 -p ack -e 40 -c 1 -i 3 -a 1 -x {3.0 0.0 0 ------- null}
h -t 0.29048 -s 3 -d 2 -p ack -e 40 -c 1 -i 3 -a 1 -x {3.0 0.0 -1 ------- null}
+ -t 0.298 -s 1 -d 2 -p cbr -e 1000 -c 2 -i 4 -a 2 -x {1.0 3.1 2 ------- null}
- -t 0.298 -s 1 -d 2 -p cbr -e 1000 -c 2 -i 4 -a 2 -x {1.0 3.1 2 ------- null}
h -t 0.298 -s 1 -d 2 -p cbr -e 1000 -c 2 -i 4 -a 2 -x {1.0 3.1 -1 ------- null}
+ -t 0.298 -s 1 -d 2 -p cbr -e 500 -c 2 -i 5 -a 2 -x {1.0 3.1 3 ------- null}
- -t 0.302 -s 1 -d 2 -p cbr -e 500 -c 2 -i 5 -a 2 -x {1.0 3.1 3 ------- null}
h -t 0.302 -s 1 -d 2 -p cbr -e 500 -c 2 -i 5 -a 2 -x {1.0 3.1 -1 ------- null}
r -t 0.302 -s 2 -d 3 -p cbr -e 1000 -c 2 -i 1 -a 2 -x {1.0 3.1 0 ------- null}
r -t 0.306 -s 2 -d 3 -p cbr -e 500 -c 2 -i 2 -a 2 -x {1.0 3.1 1 ------- null}
r -t 0.3108 -s 3 -d 2 -p ack -e 40 -c 1 -i 3 -a 1 -x {3.0 0.0 0 ------- null}
+ -t 0.3108 -s 2 -d 0 -p ack -e 40 -c 1 -i 3 -a 1 -x {3.0 0.0 0 ------- null}
- -t 0.3108 -s 2 -d 0 -p ack -e 40 -c 1 -i 3 -a 1 -x {3.0 0.0 0 ------- null}
h -t 0.3108 -s 2 -d 0 -p ack -e 40 -c 1 -i 3 -a 1 -x {3.0 0.0 -1 ------- null}
r -t 0.322 -s 1 -d 2 -p cbr -e 1000 -c 2 -i 4 -a 2 -x {1.0 3.1 2 ------- null}
+ -t 0.322 -s 2 -d 3 -p cbr -e 1000 -c 2 -i 4 -a 2 -x {1.0 3.1 2 ------- null}
- -t 0.322 -s 2 -d 3 -p cbr -e 1000 -c 2 -i 4 -a 2 -x {1.0 3.1 2 ------- null}
h -t 0.322 -s 2 -d 3 -p cbr -e 1000 -c 2 -i 4 -a 2 -x {1.0 3.1 -1 ------- null}
r -t 0.324 -s 1 -d 2 -p cbr -e 500 -c 2 -i 5 -a 2 -x {1.0 3.1 3 ------- null}
+ -t 0.324 -s 2 -d 3 -p cbr -e 500 -c 2 -i 5 -a 2 -x {1.0 3.1 3 ------- null}
- -t 0.33 -s 2 -d 3 -p cbr -e 500 -c 2 -i 5 -a 2 -x {1.0 3.1 3 ------- null}
h -t 0.33 -s 2 -d 3 -p cbr -e 500 -c 2 -i 5 -a 2 -x {1.0 3.1 -1 ------- null}
r -t 0.33096 -s 2 -d 0 -p ack -e 40 -c 1 -i 3 -a 1 -x {3.0 0.0 0 ------- null}
+ -t 0.33096 -s 0 -d 2 -p tcp -e 1540 -c 1 -i 6 -a 1 -x {0.0 3.0 1 ------- null}
- -t 0.33096 -s 0 -d 2 -p tcp -e 1540 -c 1 -i 6 -a 1 -x {0.0 3.0 1 ------- null}
h -t 0.33096 -s 0 -d 2 -p tcp -e 1540 -c 1 -i 6 -a 1 -x {0.0 3.0 -1 ------- null}
+ -t 0.33096 -s 0 -d 2 -p tcp -e 1540 -c 1 -i 7 -a 1 -x {0.0 3.0 2 ------- null}
- -t 0.33712 -s 0 -d 2 -p tcp -e 1540 -c 1 -i 7 -a 1 -x {0.0 3.0 2 ------- null}
h -t 0.33712 -s 0 -d 2 -p tcp -e 1540 -c 1 -i 7 -a 1 -x {0.0 3.0 -1 ------- null}
+ -t 0.346 -s 1 -d 2 -p cbr -e 1000 -c 2 -i 8 -a 2 -x {1.0 3.1 4 ------- null}
- -t 0.346 -s 1 -d 2 -p cbr -e 1000 -c 2 -i 8 -a 2 -x {1.0 3.1 4 ------- null}
h -t 0.346 -s 1 -d 2 -p cbr -e 1000 -c 2 -i 8 -a 2 -x {1.0 3.1 -1 ------- null}
+ -t 0.346 -s 1 -d 2 -p cbr -e 500 -c 2 -i 9 -a 2 -x {1.0 3.1 5 ------- null}
- -t 0.35 -s 1 -d 2 -p cbr -e 500 -c 2 -i 9 -a 2 -x {1.0 3.1 5 ------- null}
h -t 0.35 -s 1 -d 2 -p cbr -e 500 -c 2 -i 9 -a 2 -x {1.0 3.1 -1 ------- null}
r -t 0.35 -s 2 -d 3 -p cbr -e 1000 -c 2 -i 4 -a 2 -x {1.0 3.1 2 ------- null}
r -t 0.354 -s 2 -d 3 -p cbr -e 500 -c 2 -i 5 -a 2 -x {1.0 3.1 3 ------- null}
r -t 0.35712 -s 0 -d 2 -p tcp -e 1540 -c 1 -i 6 -a 1 -x {0.0 3.0 1 ------- null}
+ -t 0.35712 -s 2 -d 3 -p tcp -e 1540 -c 1 -i 6 -a 1 -x {0.0 3.0 1 ------- null}
- -t 0.35712 -s 2 -d 3 -p tcp -e 1540 -c 1 -i 6 -a 1 -x {0.0 3.0 1 ------- null}
h -t 0.35712 -s 2 -d 3 -p tcp -e 1540 -c 1 -i 6 -a 1 -x {0.0 3.0 -1 ------- null}
r -t 0.36328 -s 0 -d 2 -p tcp -e 1540 -c 1 -i 7 -a 1 -x {0.0 3.0 2 ------- null}
+ -t 0.36328 -s 2 -d 3 -p tcp -e 1540 -c 1 -i 7 -a 1 -x {0.0 3.0 2 ------- null}
- -t 0.36944 -s 2 -d 3 -p tcp -e 1540 -c 1 -i 7 -a 1 -x {0.0 3.0 2 ------- null}
h -t 0.36944 -s 2 -d 3 -p tcp -e 1540 -c 1 -i 7 -a 1 -x {0.0 3.0 -1 ------- null}
r -t 0.37 -s 1 -d 2 -p cbr -e 1000 -c 2 -i 8 -a 2 -x {1.0 3.1 4 ------- null}
+ -t 0.37 -s 2 -d 3 -p cbr -e 1000 -c 2 -i 8 -a 2 -x {1.0 3.1 4 ------- null}
r -t 0.372 -s 1 -d 2 -p cbr -e 500 -c 2 -i 9 -a 2 -x {1.0 3.1 5 ------- null}
+ -t 0.372 -s 2 -d 3 -p cbr -e 500 -c 2 -i 9 -a 2 -x {1.0 3.1 5 ------- null}
- -t 0.38176 -s 2 -d 3 -p cbr -e 1000 -c 2 -i 8 -a 2 -x {1.0 3.1 4 ------- null}
h -t 0.38176 -s 2 -d 3 -p cbr -e 1000 -c 2 -i 8 -a 2 -x {1.0 3.1 -1 ------- null}
r -t 0.38944 -s 2 -d 3 -p tcp -e 1540 -c 1 -i 6 -a 1 -x {0.0 3.0 1 ------- null}
+ -t 0.38944 -s 3 -d 2 -p ack -e 40 -c 1 -i 10 -a 1 -x {3.0 0.0 1 ------- null}
- -t 0.38944 -s 3 -d 2 -p ack -e 40 -c 1 -i 10 -a 1 -x {3.0 0.0 1 ------- null}
h -t 0.38944 -s 3 -d 2 -p ack -e 40 -c 1 -i 10 -a 1 -x {3.0 0.0 -1 ------- null}
- -t 0.38976 -s 2 -d 3 -p cbr -e 500 -c 2 -i 9 -a 2 -x {1.0 3.1 5 ------- null}
h -t 0.38976 -s 2 -d 3 -p cbr -e 500 -c 2 -i 9 -a 2 -x {1.0 3.1 -1 ------- null}
+ -t 0.394 -s 1 -d 2 -p cbr -e 1000 -c 2 -i 11 -a 2 -x {1.0 3.1 6 ------- null}
- -t 0.394 -s 1 -d 2 -p cbr -e 1000 -c 2 -i 11 -a 2 -x {1.0 3.1 6 ------- null}
h -t 0.394 -s 1 -d 2 -p cbr -e 1000 -c 2 -i 11 -a 2 -x {1.0 3.1 -1 ------- null}
+ -t 0.394 -s 1 -d 2 -p cbr -e 500 -c 2 -i 12 -a 2 -x {1.0 3.1 7 ------- null}
- -t 0.398 -s 1 -d 2 -p cbr -e 500 -c 2 -i 12 -a 2 -x {1.0 3.1 7 ------- null}
h -t 0.398 -s 1 -d 2 -p cbr -e 500 -c 2 -i 12 -a 2 -x {1.0 3.1 -1 ------- null}
r -t 0.40176 -s 2 -d 3 -p tcp -e 1540 -c 1 -i 7 -a 1 -x {0.0 3.0 2 ------- null}
+ -t 0.40176 -s 3 -d 2 -p ack -e 40 -c 1 -i 13 -a 1 -x {3.0 0.0 2 ------- null}
- -t 0.40176 -s 3 -d 2 -p ack -e 40 -c 1 -i 13 -a 1 -x {3.0 0.0 2 ------- null}
h -t 0.40176 -s 3 -d 2 -p ack -e 40 -c 1 -i 13 -a 1 -x {3.0 0.0 -1 ------- null}
r -t 0.40976 -s 2 -d 3 -p cbr -e 1000 -c 2 -i 8 -a 2 -x {1.0 3.1 4 ------- null}
r -t 0.40976 -s 3 -d 2 -p ack -e 40 -c 1 -i 10 -a 1 -x {3.0 0.0 1 ------- null}
+ -t 0.40976 -s 2 -d 0 -p ack -e 40 -c 1 -i 10 -a 1 -x {3.0 0.0 1 ------- null}
- -t 0.40976 -s 2 -d 0 -p ack -e 40 -c 1 -i 10 -a 1 -x {3.0 0.0 1 ------- null}
h -t 0.40976 -s 2 -d 0 -p ack -e 40 -c 1 -i 10 -a 1 -x {3.0 0.0 -1 ------- null}
r -t 0.41376 -s 2 -d 3 -p cbr -e 500 -c 2 -i 9 -a 2 -x {1.0 3.1 5 ------- null}
r -t 0.418 -s 1 -d 2 -p cbr -e 1000 -c 2 -i 11 -a 2 -x {1.0 3.1 6 ------- null}
+ -t 0.418 -s 2 -d 3 -p cbr -e 1000 -c 2 -i 11 -a 2 -x {1.0 3.1 6 ------- null}
- -t 0.418 -s 2 -d 3 -p cbr -e 1000 -c 2 -i 11 -a 2 -x {1.0 3.1 6 ------- null}
h -t 0.418 -s 2 -d 3 -p cbr -e 1000 -c 2 -i 11 -a 2 -x {1.0 3.1 -1 ------- null}
r -t 0.42 -s 1 -d 2 -p cbr -e 500 -c 2 -i 12 -a 2 -x {1.0 3.1 7 ------- null}
+ -t 0.42 -s 2 -d 3 -p cbr -e 500 -c 2 -i 12 -a 2 -x {1.0 3.1 7 ------- null}
r -t 0.42208 -s 3 -d 2 -p ack -e 40 -c 1 -i 13 -a 1 -x {3.0 0.0 2 ------- null}
+ -t 0.42208 -s 2 -d 0 -p ack -e 40 -c 1 -i 13 -a 1 -x {3.0 0.0 2 ------- null}
- -t 0.42208 -s 2 -d 0 -p ack -e 40 -c 1 -i 13 -a 1 -x {3.0 0.0 2 ------- null}
h -t 0.42208 -s 2 -d 0 -p ack -e 40 -c 1 -i 13 -a 1 -x {3.0 0.0 -1 ------- null}
- -t 0.426 -s 2 -d 3 -p cbr -e 500 -c 2 -i 12 -a 2 -x {1.0 3.1 7 ------- null}
h -t 0.426 -s 2 -d 3 -p cbr -e 500 -c 2 -i 12 -a 2 -x {1.0 3.1 -1 ------- null}
r -t 0.42992 -s 2 -d 0 -p ack -e 40 -c 1 -i 10 -a 1 -x {3.0 0.0 1 ------- null}
+ -t 0.42992 -s 0 -d 2 -p tcp -e 1540 -c 1 -i 14 -a 1 -x {0.0 3.0 3 ------- null}
- -t 0.42992 -s 0 -d 2 -p tcp -e 1540 -c 1 -i 14 -a 1 -x {0.0 3.0 3 ------- null}
h -t 0.42992 -s 0 -d 2 -p tcp -e 1540 -c 1 -i 14 -a 1 -x {0.0 3.0 -1 ------- null}
+ -t 0.42992 -s 0 -d 2 -p tcp -e 1540 -c 1 -i 15 -a 1 -x {0.0 3.0 4 ------- null}
- -t 0.43608 -s 0 -d 2 -p tcp -e 1540 -c 1 -i 15 -a 1 -x {0.0 3.0 4 ------- null}
h -t 0.43608 -s 0 -d 2 -p tcp -e 1540 -c 1 -i 15 -a 1 -x {0.0 3.0 -1 ------- null}
+ -t 0.442 -s 1 -d 2 -p cbr -e 1000 -c 2 -i 16 -a 2 -x {1.0 3.1 8 ------- null}
- -t 0.442 -s 1 -d 2 -p cbr -e 1000 -c 2 -i 16 -a 2 -x {1.0 3.1 8 ------- null}
h -t 0.442 -s 1 -d 2 -p cbr -e 1000 -c 2 -i 16 -a 2 -x {1.0 3.1 -1 ------- null}
+ -t 0.442 -s 1 -d 2 -p cbr -e 500 -c 2 -i 17 -a 2 -x {1.0 3.1 9 ------- null}
r -t 0.44224 -s 2 -d 0 -p ack -e 40 -c 1 -i 13 -a 1 -x {3.0 0.0 2 ------- null}
+ -t 0.44224 -s 0 -d 2 -p tcp -e 1540 -c 1 -i 18 -a 1 -x {0.0 3.0 5 ------- null}
+ -t 0.44224 -s 0 -d 2 -p tcp -e 1540 -c 1 -i 19 -a 1 -x {0.0 3.0 6 ------- null}
- -t 0.44224 -s 0 -d 2 -p tcp -e 1540 -c 1 -i 18 -a 1 -x {0.0 3.0 5 ------- null}
h -t 0.44224 -s 0 -d 2 -p tcp -e 1540 -c 1 -i 18 -a 1 -x {0.0 3.0 -1 ------- null}
- -t 0.446 -s 1 -d 2 -p cbr -e 500 -c 2 -i 17 -a 2 -x {1.0 3.1 9 ------- null}
h -t 0.446 -s 1 -d 2 -p cbr -e 500 -c 2 -i 17 -a 2 -x {1.0 3.1 -1 ------- null}
r -t 0.446 -s 2 -d 3 -p cbr -e 1000 -c 2 -i 11 -a 2 -x {1.0 3.1 6 ------- null}
- -t 0.4484 -s 0 -d 2 -p tcp -e 1540 -c 1 -i 19 -a 1 -x {0.0 3.0 6 ------- null}
h -t 0.4484 -s 0 -d 2 -p tcp -e 1540 -c 1 -i 19 -a 1 -x {0.0 3.0 -1 ------- null}
r -t 0.45 -s 2 -d 3 -p cbr -e 500 -c 2 -i 12 -a 2 -x {1.0 3.1 7 ------- null}
r -t 0.45608 -s 0 -d 2 -p tcp -e 1540 -c 1 -i 14 -a 1 -x {0.0 3.0 3 ------- null}
+ -t 0.45608 -s 2 -d 3 -p tcp -e 1540 -c 1 -i 14 -a 1 -x {0.0 3.0 3 ------- null}
- -t 0.45608 -s 2 -d 3 -p tcp -e 1540 -c 1 -i 14 -a 1 -x {0.0 3.0 3 ------- null}
h -t 0.45608 -s 2 -d 3 -p tcp -e 1540 -c 1 -i 14 -a 1 -x {0.0 3.0 -1 ------- null}
r -t 0.46224 -s 0 -d 2 -p tcp -e 1540 -c 1 -i 15 -a 1 -x {0.0 3.0 4 ------- null}
+ -t 0.46224 -s 2 -d 3 -p tcp -e 1540 -c 1 -i 15 -a 1 -x {0.0 3.0 4 ------- null}
r -t 0.466 -s 1 -d 2 -p cbr -e 1000 -c 2 -i 16 -a 2 -x {1.0 3.1 8 ------- null}
+ -t 0.466 -s 2 -d 3 -p cbr -e 1000 -c 2 -i 16 -a 2 -x {1.0 3.1 8 ------- null}
r -t 0.468 -s 1 -d 2 -p cbr -e 500 -c 2 -i 17 -a 2 -x {1.0 3.1 9 ------- null}
+ -t 0.468 -s 2 -d 3 -p cbr -e 500 -c 2 -i 17 -a 2 -x {1.0 3.1 9 ------- null}
r -t 0.4684 -s 0 -d 2 -p tcp -e 1540 -c 1 -i 18 -a 1 -x {0.0 3.0 5 ------- null}
+ -t 0.4684 -s 2 -d 3 -p tcp -e 1540 -c 1 -i 18 -a 1 -x {0.0 3.0 5 ------- null}
d -t 0.4684 -s 2 -d 3 -p tcp -e 1540 -c 1 -i 18 -a 1 -x {0.0 3.0 5 ------- null}
- -t 0.4684 -s 2 -d 3 -p tcp -e 1540 -c 1 -i 15 -a 1 -x {0.0 3.0 4 ------- null}
h -t 0.4684 -s 2 -d 3 -p tcp -e 1540 -c 1 -i 15 -a 1 -x {0.0 3.0 -1 ------- null}
r -t 0.47456 -s 0 -d 2 -p tcp -e 1540 -c 1 -i 19 -a 1 -x {0.0 3.0 6 ------- null}
+ -t 0.47456 -s 2 -d 3 -p tcp -e 1540 -c 1 -i 19 -a 1 -x {0.0 3.0 6 ------- null}
- -t 0.48072 -s 2 -d 3 -p cbr -e 1000 -c 2 -i 16 -a 2 -x {1.0 3.1 8 ------- null}
h -t 0.48072 -s 2 -d 3 -p cbr -e 1000 -c 2 -i 16 -a 2 -x {1.0 3.1 -1 ------- null}
r -t 0.4884 -s 2 -d 3 -p tcp -e 1540 -c 1 -i 14 -a 1 -x {0.0 3.0 3 ------- null}
+ -t 0.4884 -s 3 -d 2 -p ack -e 40 -c 1 -i 20 -a 1 -x {3.0 0.0 3 ------- null}
- -t 0.4884 -s 3 -d 2 -p ack -e 40 -c 1 -i 20 -a 1 -x {3.0 0.0 3 ------- null}
h -t 0.4884 -s 3 -d 2 -p ack -e 40 -c 1 -i 20 -a 1 -x {3.0 0.0 -1 ------- null}
- -t 0.48872 -s 2 -d 3 -p cbr -e 500 -c 2 -i 17 -a 2 -x {1.0 3.1 9 ------- null}
h -t 0.48872 -s 2 -d 3 -p cbr -e 500 -c 2 -i 17 -a 2 -x {1.0 3.1 -1 ------- null}
+ -t 0.49 -s 1 -d 2 -p cbr -e 1000 -c 2 -i 21 -a 2 -x {1.0 3.1 10 ------- null}
- -t 0.49 -s 1 -d 2 -p cbr -e 1000 -c 2 -i 21 -a 2 -x {1.0 3.1 10 ------- null}
h -t 0.49 -s 1 -d 2 -p cbr -e 1000 -c 2 -i 21 -a 2 -x {1.0 3.1 -1 ------- null}
+ -t 0.49 -s 1 -d 2 -p cbr -e 500 -c 2 -i 22 -a 2 -x {1.0 3.1 11 ------- null}
- -t 0.49272 -s 2 -d 3 -p tcp -e 1540 -c 1 -i 19 -a 1 -x {0.0 3.0 6 ------- null}
h -t 0.49272 -s 2 -d 3 -p tcp -e 1540 -c 1 -i 19 -a 1 -x {0.0 3.0 -1 ------- null}
- -t 0.494 -s 1 -d 2 -p cbr -e 500 -c 2 -i 22 -a 2 -x {1.0 3.1 11 ------- null}
h -t 0.494 -s 1 -d 2 -p cbr -e 500 -c 2 -i 22 -a 2 -x {1.0 3.1 -1 ------- null}
r -t 0.50072 -s 2 -d 3 -p tcp -e 1540 -c 1 -i 15 -a 1 -x {0.0 3.0 4 ------- null}
+ -t 0.50072 -s 3 -d 2 -p ack -e 40 -c 1 -i 23 -a 1 -x {3.0 0.0 4 ------- null}
- -t 0.50072 -s 3 -d 2 -p ack -e 40 -c 1 -i 23 -a 1 -x {3.0 0.0 4 ------- null}
h -t 0.50072 -s 3 -d 2 -p ack -e 40 -c 1 -i 23 -a 1 -x {3.0 0.0 -1 ------- null}
r -t 0.50872 -s 2 -d 3 -p cbr -e 1000 -c 2 -i 16 -a 2 -x {1.0 3.1 8 ------- null}
r -t 0.50872 -s 3 -d 2 -p ack -e 40 -c 1 -i 20 -a 1 -x {3.0 0.0 3 ------- null}
+ -t 0.50872 -s 2 -d 0 -p ack -e 40 -c 1 -i 20 -a 1 -x {3.0 0.0 3 ------- null}
- -t 0.50872 -s 2 -d 0 -p ack -e 40 -c 1 -i 20 -a 1 -x {3.0 0.0 3 ------- null}
h -t 0.50872 -s 2 -d 0 -p ack -e 40 -c 1 -i 20 -a 1 -x {3.0 0.0 -1 ------- null}
r -t 0.51272 -s 2 -d 3 -p cbr -e 500 -c 2 -i 17 -a 2 -x {1.0 3.1 9 ------- null}
r -t 0.514 -s 1 -d 2 -p cbr -e 1000 -c 2 -i 21 -a 2 -x {1.0 3.1 10 ------- null}
+ -t 0.514 -s 2 -d 3 -p cbr -e 1000 -c 2 -i 21 -a 2 -x {1.0 3.1 10 ------- null}
- -t 0.514 -s 2 -d 3 -p cbr -e 1000 -c 2 -i 21 -a 2 -x {1.0 3.1 10 ------- null}
h -t 0.514 -s 2 -d 3 -p cbr -e 1000 -c 2 -i 21 -a 2 -x {1.0 3.1 -1 ------- null}
r -t 0.516 -s 1 -d 2 -p cbr -e 500 -c 2 -i 22 -a 2 -x {1.0 3.1 11 ------- null}
+ -t 0.516 -s 2 -d 3 -p cbr -e 500 -c 2 -i 22 -a 2 -x {1.0 3.1 11 ------- null}
r -t 0.52104 -s 3 -d 2 -p ack -e 40 -c 1 -i 23 -a 1 -x {3.0 0.0 4 ------- null}
+ -t 0.52104 -s 2 -d 0 -p ack -e 40 -c 1 -i 23 -a 1 -x {3.0 0.0 4 ------- null}
- -t 0.52104 -s 2 -d 0 -p ack -e 40 -c 1 -i 23 -a 1 -x {3.0 0.0 4 ------- null}
h -t 0.52104 -s 2 -d 0 -p ack -e 40 -c 1 -i 23 -a 1 -x {3.0 0.0 -1 ------- null}
- -t 0.522 -s 2 -d 3 -p cbr -e 500 -c 2 -i 22 -a 2 -x {1.0 3.1 11 ------- null}
h -t 0.522 -s 2 -d 3 -p cbr -e 500 -c 2 -i 22 -a 2 -x {1.0 3.1 -1 ------- null}
r -t 0.52504 -s 2 -d 3 -p tcp -e 1540 -c 1 -i 19 -a 1 -x {0.0 3.0 6 ------- null}
+ -t 0.52504 -s 3 -d 2 -p ack -e 40 -c 1 -i 24 -a 1 -x {3.0 0.0 4 ------- null}
- -t 0.52504 -s 3 -d 2 -p ack -e 40 -c 1 -i 24 -a 1 -x {3.0 0.0 4 ------- null}
h -t 0.52504 -s 3 -d 2 -p ack -e 40 -c 1 -i 24 -a 1 -x {3.0 0.0 -1 ------- null}
r -t 0.52888 -s 2 -d 0 -p ack -e 40 -c 1 -i 20 -a 1 -x {3.0 0.0 3 ------- null}
+ -t 0.52888 -s 0 -d 2 -p tcp -e 1540 -c 1 -i 25 -a 1 -x {0.0 3.0 7 ------- null}
- -t 0.52888 -s 0 -d 2 -p tcp -e 1540 -c 1 -i 25 -a 1 -x {0.0 3.0 7 ------- null}
h -t 0.52888 -s 0 -d 2 -p tcp -e 1540 -c 1 -i 25 -a 1 -x {0.0 3.0 -1 ------- null}
+ -t 0.52888 -s 0 -d 2 -p tcp -e 1540 -c 1 -i 26 -a 1 -x {0.0 3.0 8 ------- null}
- -t 0.53504 -s 0 -d 2 -p tcp -e 1540 -c 1 -i 26 -a 1 -x {0.0 3.0 8 ------- null}
h -t 0.53504 -s 0 -d 2 -p tcp -e 1540 -c 1 -i 26 -a 1 -x {0.0 3.0 -1 ------- null}
+ -t 0.538 -s 1 -d 2 -p cbr -e 1000 -c 2 -i 27 -a 2 -x {1.0 3.1 12 ------- null}
- -t 0.538 -s 1 -d 2 -p cbr -e 1000 -c 2 -i 27 -a 2 -x {1.0 3.1 12 ------- null}
h -t 0.538 -s 1 -d 2 -p cbr -e 1000 -c 2 -i 27 -a 2 -x {1.0 3.1 -1 ------- null}
+ -t 0.538 -s 1 -d 2 -p cbr -e 500 -c 2 -i 28 -a 2 -x {1.0 3.1 13 ------- null}
r -t 0.5412 -s 2 -d 0 -p ack -e 40 -c 1 -i 23 -a 1 -x {3.0 0.0 4 ------- null}
+ -t 0.5412 -s 0 -d 2 -p tcp -e 1540 -c 1 -i 29 -a 1 -x {0.0 3.0 9 ------- null}
+ -t 0.5412 -s 0 -d 2 -p tcp -e 1540 -c 1 -i 30 -a 1 -x {0.0 3.0 10 ------- null}
- -t 0.5412 -s 0 -d 2 -p tcp -e 1540 -c 1 -i 29 -a 1 -x {0.0 3.0 9 ------- null}
h -t 0.5412 -s 0 -d 2 -p tcp -e 1540 -c 1 -i 29 -a 1 -x {0.0 3.0 -1 ------- null}
r -t 0.542 -s 2 -d 3 -p cbr -e 1000 -c 2 -i 21 -a 2 -x {1.0 3.1 10 ------- null}
- -t 0.542 -s 1 -d 2 -p cbr -e 500 -c 2 -i 28 -a 2 -x {1.0 3.1 13 ------- null}
h -t 0.542 -s 1 -d 2 -p cbr -e 500 -c 2 -i 28 -a 2 -x {1.0 3.1 -1 ------- null}
r -t 0.54536 -s 3 -d 2 -p ack -e 40 -c 1 -i 24 -a 1 -x {3.0 0.0 4 ------- null}
+ -t 0.54536 -s 2 -d 0 -p ack -e 40 -c 1 -i 24 -a 1 -x {3.0 0.0 4 ------- null}
- -t 0.54536 -s 2 -d 0 -p ack -e 40 -c 1 -i 24 -a 1 -x {3.0 0.0 4 ------- null}
h -t 0.54536 -s 2 -d 0 -p ack -e 40 -c 1 -i 24 -a 1 -x {3.0 0.0 -1 ------- null}
r -t 0.546 -s 2 -d 3 -p cbr -e 500 -c 2 -i 22 -a 2 -x {1.0 3.1 11 ------- null}
- -t 0.54736 -s 0 -d 2 -p tcp -e 1540 -c 1 -i 30 -a 1 -x {0.0 3.0 10 ------- null}
h -t 0.54736 -s 0 -d 2 -p tcp -e 1540 -c 1 -i 30 -a 1 -x {0.0 3.0 -1 ------- null}
r -t 0.55504 -s 0 -d 2 -p tcp -e 1540 -c 1 -i 25 -a 1 -x {0.0 3.0 7 ------- null}
+ -t 0.55504 -s 2 -d 3 -p tcp -e 1540 -c 1 -i 25 -a 1 -x {0.0 3.0 7 ------- null}
- -t 0.55504 -s 2 -d 3 -p tcp -e 1540 -c 1 -i 25 -a 1 -x {0.0 3.0 7 ------- null}
h -t 0.55504 -s 2 -d 3 -p tcp -e 1540 -c 1 -i 25 -a 1 -x {0.0 3.0 -1 ------- null}
r -t 0.5612 -s 0 -d 2 -p tcp -e 1540 -c 1 -i 26 -a 1 -x {0.0 3.0 8 ------- null}
+ -t 0.5612 -s 2 -d 3 -p tcp -e 1540 -c 1 -i 26 -a 1 -x {0.0 3.0 8 ------- null}
r -t 0.562 -s 1 -d 2 -p cbr -e 1000 -c 2 -i 27 -a 2 -x {1.0 3.1 12 ------- null}
+ -t 0.562 -s 2 -d 3 -p cbr -e 1000 -c 2 -i 27 -a 2 -x {1.0 3.1 12 ------- null}
r -t 0.564 -s 1 -d 2 -p cbr -e 500 -c 2 -i 28 -a 2 -x {1.0 3.1 13 ------- null}
+ -t 0.564 -s 2 -d 3 -p cbr -e 500 -c 2 -i 28 -a 2 -x {1.0 3.1 13 ------- null}
r -t 0.56552 -s 2 -d 0 -p ack -e 40 -c 1 -i 24 -a 1 -x {3.0 0.0 4 ------- null}
+ -t 0.56552 -s 0 -d 2 -p tcp -e 1540 -c 1 -i 31 -a 1 -x {0.0 3.0 11 ------- null}
- -t 0.56552 -s 0 -d 2 -p tcp -e 1540 -c 1 -i 31 -a 1 -x {0.0 3.0 11 ------- null}
h -t 0.56552 -s 0 -d 2 -p tcp -e 1540 -c 1 -i 31 -a 1 -x {0.0 3.0 -1 ------- null}
- -t 0.56736 -s 2 -d 3 -p tcp -e 1540 -c 1 -i 26 -a 1 -x {0.0 3.0 8 ------- null}
h -t 0.56736 -s 2 -d 3 -p tcp -e 1540 -c 1 -i 26 -a 1 -x {0.0 3.0 -1 ------- null}
r -t 0.56736 -s 0 -d 2 -p tcp -e 1540 -c 1 -i 29 -a 1 -x {0.0 3.0 9 ------- null}
+ -t 0.56736 -s 2 -d 3 -p tcp -e 1540 -c 1 -i 29 -a 1 -x {0.0 3.0 9 ------- null}
r -t 0.57352 -s 0 -d 2 -p tcp -e 1540 -c 1 -i 30 -a 1 -x {0.0 3.0 10 ------- null}
+ -t 0.57352 -s 2 -d 3 -p tcp -e 1540 -c 1 -i 30 -a 1 -x {0.0 3.0 10 ------- null}
d -t 0.57352 -s 2 -d 3 -p tcp -e 1540 -c 1 -i 30 -a 1 -x {0.0 3.0 10 ------- null}
- -t 0.57968 -s 2 -d 3 -p cbr -e 1000 -c 2 -i 27 -a 2 -x {1.0 3.1 12 ------- null}
h -t 0.57968 -s 2 -d 3 -p cbr -e 1000 -c 2 -i 27 -a 2 -x {1.0 3.1 -1 ------- null}
+ -t 0.586 -s 1 -d 2 -p cbr -e 1000 -c 2 -i 32 -a 2 -x {1.0 3.1 14 ------- null}
- -t 0.586 -s 1 -d 2 -p cbr -e 1000 -c 2 -i 32 -a 2 -x {1.0 3.1 14 ------- null}
h -t 0.586 -s 1 -d 2 -p cbr -e 1000 -c 2 -i 32 -a 2 -x {1.0 3.1 -1 ------- null}
+ -t 0.586 -s 1 -d 2 -p cbr -e 500 -c 2 -i 33 -a 2 -x {1.0 3.1 15 ------- null}
r -t 0.58736 -s 2 -d 3 -p tcp -e 1540 -c 1 -i 25 -a 1 -x {0.0 3.0 7 ------- null}
+ -t 0.58736 -s 3 -d 2 -p ack -e 40 -c 1 -i 34 -a 1 -x {3.0 0.0 4 ------- null}
- -t 0.58736 -s 3 -d 2 -p ack -e 40 -c 1 -i 34 -a 1 -x {3.0 0.0 4 ------- null}
h -t 0.58736 -s 3 -d 2 -p ack -e 40 -c 1 -i 34 -a 1 -x {3.0 0.0 -1 ------- null}
- -t 0.58768 -s 2 -d 3 -p cbr -e 500 -c 2 -i 28 -a 2 -x {1.0 3.1 13 ------- null}
h -t 0.58768 -s 2 -d 3 -p cbr -e 500 -c 2 -i 28 -a 2 -x {1.0 3.1 -1 ------- null}
- -t 0.59 -s 1 -d 2 -p cbr -e 500 -c 2 -i 33 -a 2 -x {1.0 3.1 15 ------- null}
h -t 0.59 -s 1 -d 2 -p cbr -e 500 -c 2 -i 33 -a 2 -x {1.0 3.1 -1 ------- null}
r -t 0.59168 -s 0 -d 2 -p tcp -e 1540 -c 1 -i 31 -a 1 -x {0.0 3.0 11 ------- null}
+ -t 0.59168 -s 2 -d 3 -p tcp -e 1540 -c 1 -i 31 -a 1 -x {0.0 3.0 11 ------- null}
- -t 0.59168 -s 2 -d 3 -p tcp -e 1540 -c 1 -i 29 -a 1 -x {0.0 3.0 9 ------- null}
h -t 0.59168 -s 2 -d 3 -p tcp -e 1540 -c 1 -i 29 -a 1 -x {0.0 3.0 -1 ------- null}
r -t 0.59968 -s 2 -d 3 -p tcp -e 1540 -c 1 -i 26 -a 1 -x {0.0 3.0 8 ------- null}
+ -t 0.59968 -s 3 -d 2 -p ack -e 40 -c 1 -i 35 -a 1 -x {3.0 0.0 4 ------- null}
- -t 0.59968 -s 3 -d 2 -p ack -e 40 -c 1 -i 35 -a 1 -x {3.0 0.0 4 ------- null}
h -t 0.59968 -s 3 -d 2 -p ack -e 40 -c 1 -i 35 -a 1 -x {3.0 0.0 -1 ------- null}
- -t 0.604 -s 2 -d 3 -p tcp -e 1540 -c 1 -i 31 -a 1 -x {0.0 3.0 11 ------- null}
h -t 0.604 -s 2 -d 3 -p tcp -e 1540 -c 1 -i 31 -a 1 -x {0.0 3.0 -1 ------- null}
r -t 0.60768 -s 2 -d 3 -p cbr -e 1000 -c 2 -i 27 -a 2 -x {1.0 3.1 12 ------- null}
r -t 0.60768 -s 3 -d 2 -p ack -e 40 -c 1 -i 34 -a 1 -x {3.0 0.0 4 ------- null}
+ -t 0.60768 -s 2 -d 0 -p ack -e 40 -c 1 -i 34 -a 1 -x {3.0 0.0 4 ------- null}
- -t 0.60768 -s 2 -d 0 -p ack -e 40 -c 1 -i 34 -a 1 -x {3.0 0.0 4 ------- null}
h -t 0.60768 -s 2 -d 0 -p ack -e 40 -c 1 -i 34 -a 1 -x {3.0 0.0 -1 ------- null}
r -t 0.61 -s 1 -d 2 -p cbr -e 1000 -c 2 -i 32 -a 2 -x {1.0 3.1 14 ------- null}
+ -t 0.61 -s 2 -d 3 -p cbr -e 1000 -c 2 -i 32 -a 2 -x {1.0 3.1 14 ------- null}
r -t 0.61168 -s 2 -d 3 -p cbr -e 500 -c 2 -i 28 -a 2 -x {1.0 3.1 13 ------- null}
r -t 0.612 -s 1 -d 2 -p cbr -e 500 -c 2 -i 33 -a 2 -x {1.0 3.1 15 ------- null}
+ -t 0.612 -s 2 -d 3 -p cbr -e 500 -c 2 -i 33 -a 2 -x {1.0 3.1 15 ------- null}
- -t 0.61632 -s 2 -d 3 -p cbr -e 1000 -c 2 -i 32 -a 2 -x {1.0 3.1 14 ------- null}
h -t 0.61632 -s 2 -d 3 -p cbr -e 1000 -c 2 -i 32 -a 2 -x {1.0 3.1 -1 ------- null}
r -t 0.62 -s 3 -d 2 -p ack -e 40 -c 1 -i 35 -a 1 -x {3.0 0.0 4 ------- null}
+ -t 0.62 -s 2 -d 0 -p ack -e 40 -c 1 -i 35 -a 1 -x {3.0 0.0 4 ------- null}
- -t 0.62 -s 2 -d 0 -p ack -e 40 -c 1 -i 35 -a 1 -x {3.0 0.0 4 ------- null}
h -t 0.62 -s 2 -d 0 -p ack -e 40 -c 1 -i 35 -a 1 -x {3.0 0.0 -1 ------- null}
r -t 0.624 -s 2 -d 3 -p tcp -e 1540 -c 1 -i 29 -a 1 -x {0.0 3.0 9 ------- null}
+ -t 0.624 -s 3 -d 2 -p ack -e 40 -c 1 -i 36 -a 1 -x {3.0 0.0 4 ------- null}
- -t 0.624 -s 3 -d 2 -p ack -e 40 -c 1 -i 36 -a 1 -x {3.0 0.0 4 ------- null}
h -t 0.624 -s 3 -d 2 -p ack -e 40 -c 1 -i 36 -a 1 -x {3.0 0.0 -1 ------- null}
- -t 0.62432 -s 2 -d 3 -p cbr -e 500 -c 2 -i 33 -a 2 -x {1.0 3.1 15 ------- null}
h -t 0.62432 -s 2 -d 3 -p cbr -e 500 -c 2 -i 33 -a 2 -x {1.0 3.1 -1 ------- null}
r -t 0.62784 -s 2 -d 0 -p ack -e 40 -c 1 -i 34 -a 1 -x {3.0 0.0 4 ------- null}
+ -t 0.62784 -s 0 -d 2 -p tcp -e 1540 -c 1 -i 37 -a 1 -x {0.0 3.0 12 ------- null}
- -t 0.62784 -s 0 -d 2 -p tcp -e 1540 -c 1 -i 37 -a 1 -x {0.0 3.0 12 ------- null}
h -t 0.62784 -s 0 -d 2 -p tcp -e 1540 -c 1 -i 37 -a 1 -x {0.0 3.0 -1 ------- null}
+ -t 0.634 -s 1 -d 2 -p cbr -e 1000 -c 2 -i 38 -a 2 -x {1.0 3.1 16 ------- null}
- -t 0.634 -s 1 -d 2 -p cbr -e 1000 -c 2 -i 38 -a 2 -x {1.0 3.1 16 ------- null}
h -t 0.634 -s 1 -d 2 -p cbr -e 1000 -c 2 -i 38 -a 2 -x {1.0 3.1 -1 ------- null}
+ -t 0.634 -s 1 -d 2 -p cbr -e 500 -c 2 -i 39 -a 2 -x {1.0 3.1 17 ------- null}
r -t 0.63632 -s 2 -d 3 -p tcp -e 1540 -c 1 -i 31 -a 1 -x {0.0 3.0 11 ------- null}
+ -t 0.63632 -s 3 -d 2 -p ack -e 40 -c 1 -i 40 -a 1 -x {3.0 0.0 4 ------- null}
- -t 0.63632 -s 3 -d 2 -p ack -e 40 -c 1 -i 40 -a 1 -x {3.0 0.0 4 ------- null}
h -t 0.63632 -s 3 -d 2 -p ack -e 40 -c 1 -i 40 -a 1 -x {3.0 0.0 -1 ------- null}
- -t 0.638 -s 1 -d 2 -p cbr -e 500 -c 2 -i 39 -a 2 -x {1.0 3.1 17 ------- null}
h -t 0.638 -s 1 -d 2 -p cbr -e 500 -c 2 -i 39 -a 2 -x {1.0 3.1 -1 ------- null}
r -t 0.64016 -s 2 -d 0 -p ack -e 40 -c 1 -i 35 -a 1 -x {3.0 0.0 4 ------- null}
+ -t 0.64016 -s 0 -d 2 -p tcp -e 1540 -c 1 -i 41 -a 1 -x {0.0 3.0 5 ---A--- null}
- -t 0.64016 -s 0 -d 2 -p tcp -e 1540 -c 1 -i 41 -a 1 -x {0.0 3.0 5 ---A--- null}
h -t 0.64016 -s 0 -d 2 -p tcp -e 1540 -c 1 -i 41 -a 1 -x {0.0 3.0 -1 ---A--- null}
r -t 0.64432 -s 2 -d 3 -p cbr -e 1000 -c 2 -i 32 -a 2 -x {1.0 3.1 14 ------- null}
r -t 0.64432 -s 3 -d 2 -p ack -e 40 -c 1 -i 36 -a 1 -x {3.0 0.0 4 ------- null}
+ -t 0.64432 -s 2 -d 0 -p ack -e 40 -c 1 -i 36 -a 1 -x {3.0 0.0 4 ------- null}
- -t 0.64432 -s 2 -d 0 -p ack -e 40 -c 1 -i 36 -a 1 -x {3.0 0.0 4 ------- null}
h -t 0.64432 -s 2 -d 0 -p ack -e 40 -c 1 -i 36 -a 1 -x {3.0 0.0 -1 ------- null}
r -t 0.64832 -s 2 -d 3 -p cbr -e 500 -c 2 -i 33 -a 2 -x {1.0 3.1 15 ------- null}
r -t 0.654 -s 0 -d 2 -p tcp -e 1540 -c 1 -i 37 -a 1 -x {0.0 3.0 12 ------- null}
+ -t 0.654 -s 2 -d 3 -p tcp -e 1540 -c 1 -i 37 -a 1 -x {0.0 3.0 12 ------- null}
- -t 0.654 -s 2 -d 3 -p tcp -e 1540 -c 1 -i 37 -a 1 -x {0.0 3.0 12 ------- null}
h -t 0.654 -s 2 -d 3 -p tcp -e 1540 -c 1 -i 37 -a 1 -x {0.0 3.0 -1 ------- null}
r -t 0.65664 -s 3 -d 2 -p ack -e 40 -c 1 -i 40 -a 1 -x {3.0 0.0 4 ------- null}
+ -t 0.65664 -s 2 -d 0 -p ack -e 40 -c 1 -i 40 -a 1 -x {3.0 0.0 4 ------- null}
- -t 0.65664 -s 2 -d 0 -p ack -e 40 -c 1 -i 40 -a 1 -x {3.0 0.0 4 ------- null}
h -t 0.65664 -s 2 -d 0 -p ack -e 40 -c 1 -i 40 -a 1 -x {3.0 0.0 -1 ------- null}
r -t 0.658 -s 1 -d 2 -p cbr -e 1000 -c 2 -i 38 -a 2 -x {1.0 3.1 16 ------- null}
+ -t 0.658 -s 2 -d 3 -p cbr -e 1000 -c 2 -i 38 -a 2 -x {1.0 3.1 16 ------- null}
r -t 0.66 -s 1 -d 2 -p cbr -e 500 -c 2 -i 39 -a 2 -x {1.0 3.1 17 ------- null}
+ -t 0.66 -s 2 -d 3 -p cbr -e 500 -c 2 -i 39 -a 2 -x {1.0 3.1 17 ------- null}
r -t 0.66448 -s 2 -d 0 -p ack -e 40 -c 1 -i 36 -a 1 -x {3.0 0.0 4 ------- null}
r -t 0.66632 -s 0 -d 2 -p tcp -e 1540 -c 1 -i 41 -a 1 -x {0.0 3.0 5 ---A--- null}
+ -t 0.66632 -s 2 -d 3 -p tcp -e 1540 -c 1 -i 41 -a 1 -x {0.0 3.0 5 ---A--- null}
- -t 0.66632 -s 2 -d 3 -p cbr -e 1000 -c 2 -i 38 -a 2 -x {1.0 3.1 16 ------- null}
h -t 0.66632 -s 2 -d 3 -p cbr -e 1000 -c 2 -i 38 -a 2 -x {1.0 3.1 -1 ------- null}
- -t 0.67432 -s 2 -d 3 -p cbr -e 500 -c 2 -i 39 -a 2 -x {1.0 3.1 17 ------- null}
h -t 0.67432 -s 2 -d 3 -p cbr -e 500 -c 2 -i 39 -a 2 -x {1.0 3.1 -1 ------- null}
r -t 0.6768 -s 2 -d 0 -p ack -e 40 -c 1 -i 40 -a 1 -x {3.0 0.0 4 ------- null}
- -t 0.67832 -s 2 -d 3 -p tcp -e 1540 -c 1 -i 41 -a 1 -x {0.0 3.0 5 ---A--- null}
h -t 0.67832 -s 2 -d 3 -p tcp -e 1540 -c 1 -i 41 -a 1 -x {0.0 3.0 -1 ---A--- null}
+ -t 0.682 -s 1 -d 2 -p cbr -e 1000 -c 2 -i 42 -a 2 -x {1.0 3.1 18 ------- null}
- -t 0.682 -s 1 -d 2 -p cbr -e 1000 -c 2 -i 42 -a 2 -x {1.0 3.1 18 ------- null}
h -t 0.682 -s 1 -d 2 -p cbr -e 1000 -c 2 -i 42 -a 2 -x {1.0 3.1 -1 ------- null}
+ -t 0.682 -s 1 -d 2 -p cbr -e 500 -c 2 -i 43 -a 2 -x {1.0 3.1 19 ------- null}
- -t 0.686 -s 1 -d 2 -p cbr -e 500 -c 2 -i 43 -a 2 -x {1.0 3.1 19 ------- null}
h -t 0.686 -s 1 -d 2 -p cbr -e 500 -c 2 -i 43 -a 2 -x {1.0 3.1 -1 ------- null}
r -t 0.68632 -s 2 -d 3 -p tcp -e 1540 -c 1 -i 37 -a 1 -x {0.0 3.0 12 ------- null}
+ -t 0.68632 -s 3 -d 2 -p ack -e 40 -c 1 -i 44 -a 1 -x {3.0 0.0 4 ------- null}
- -t 0.68632 -s 3 -d 2 -p ack -e 40 -c 1 -i 44 -a 1 -x {3.0 0.0 4 ------- null}
h -t 0.68632 -s 3 -d 2 -p ack -e 40 -c 1 -i 44 -a 1 -x {3.0 0.0 -1 ------- null}
r -t 0.69432 -s 2 -d 3 -p cbr -e 1000 -c 2 -i 38 -a 2 -x {1.0 3.1 16 ------- null}
r -t 0.69832 -s 2 -d 3 -p cbr -e 500 -c 2 -i 39 -a 2 -x {1.0 3.1 17 ------- null}
r -t 0.706 -s 1 -d 2 -p cbr -e 1000 -c 2 -i 42 -a 2 -x {1.0 3.1 18 ------- null}
+ -t 0.706 -s 2 -d 3 -p cbr -e 1000 -c 2 -i 42 -a 2 -x {1.0 3.1 18 ------- null}
- -t 0.706 -s 2 -d 3 -p cbr -e 1000 -c 2 -i 42 -a 2 -x {1.0 3.1 18 ------- null}
h -t 0.706 -s 2 -d 3 -p cbr -e 1000 -c 2 -i 42 -a 2 -x {1.0 3.1 -1 ------- null}
r -t 0.70664 -s 3 -d 2 -p ack -e 40 -c 1 -i 44 -a 1 -x {3.0 0.0 4 ------- null}
+ -t 0.70664 -s 2 -d 0 -p ack -e 40 -c 1 -i 44 -a 1 -x {3.0 0.0 4 ------- null}
- -t 0.70664 -s 2 -d 0 -p ack -e 40 -c 1 -i 44 -a 1 -x {3.0 0.0 4 ------- null}
h -t 0.70664 -s 2 -d 0 -p ack -e 40 -c 1 -i 44 -a 1 -x {3.0 0.0 -1 ------- null}
r -t 0.708 -s 1 -d 2 -p cbr -e 500 -c 2 -i 43 -a 2 -x {1.0 3.1 19 ------- null}
+ -t 0.708 -s 2 -d 3 -p cbr -e 500 -c 2 -i 43 -a 2 -x {1.0 3.1 19 ------- null}
r -t 0.71064 -s 2 -d 3 -p tcp -e 1540 -c 1 -i 41 -a 1 -x {0.0 3.0 5 ---A--- null}
+ -t 0.71064 -s 3 -d 2 -p ack -e 40 -c 1 -i 45 -a 1 -x {3.0 0.0 9 ------- null}
- -t 0.71064 -s 3 -d 2 -p ack -e 40 -c 1 -i 45 -a 1 -x {3.0 0.0 9 ------- null}
h -t 0.71064 -s 3 -d 2 -p ack -e 40 -c 1 -i 45 -a 1 -x {3.0 0.0 -1 ------- null}
- -t 0.714 -s 2 -d 3 -p cbr -e 500 -c 2 -i 43 -a 2 -x {1.0 3.1 19 ------- null}
h -t 0.714 -s 2 -d 3 -p cbr -e 500 -c 2 -i 43 -a 2 -x {1.0 3.1 -1 ------- null}
r -t 0.7268 -s 2 -d 0 -p ack -e 40 -c 1 -i 44 -a 1 -x {3.0 0.0 4 ------- null}
+ -t 0.73 -s 1 -d 2 -p cbr -e 1000 -c 2 -i 46 -a 2 -x {1.0 3.1 20 ------- null}
- -t 0.73 -s 1 -d 2 -p cbr -e 1000 -c 2 -i 46 -a 2 -x {1.0 3.1 20 ------- null}
h -t 0.73 -s 1 -d 2 -p cbr -e 1000 -c 2 -i 46 -a 2 -x {1.0 3.1 -1 ------- null}
+ -t 0.73 -s 1 -d 2 -p cbr -e 500 -c 2 -i 47 -a 2 -x {1.0 3.1 21 ------- null}
r -t 0.73096 -s 3 -d 2 -p ack -e 40 -c 1 -i 45 -a 1 -x {3.0 0.0 9 ------- null}
+ -t 0.73096 -s 2 -d 0 -p ack -e 40 -c 1 -i 45 -a 1 -x {3.0 0.0 9 ------- null}
- -t 0.73096 -s 2 -d 0 -p ack -e 40 -c 1 -i 45 -a 1 -x {3.0 0.0 9 ------- null}
h -t 0.73096 -s 2 -d 0 -p ack -e 40 -c 1 -i 45 -a 1 -x {3.0 0.0 -1 ------- null}