V -t * -v 1.0a5 -a 0
A -t * -n 1 -p 0 -o 0x7fffffff -c 30 -a 1
A -t * -h 1 -m 1073741823 -s 0
c -t * -i 1 -n Blue
c -t * -i 2 -n Red
c -t * -i 3 -n Green
n -t * -a 4 -s 4 -S UP -v circle -c black -i black
n -t * -a 0 -s 0 -S UP -v circle -c black -i black
n -t * -a 5 -s 5 -S UP -v circle -c black -i black
n -t * -a 1 -s 1 -S UP -v circle -c black -i black
n -t * -a 6 -s 6 -S UP -v circle -c black -i black
n -t * -a 2 -s 2 -S UP -v circle -c black -i black
n -t * -a 7 -s 7 -S UP -v circle -c black -i black
n -t * -a 3 -s 3 -S UP -v circle -c black -i black
l -t * -s 2 -d 3 -S UP -r 2000000 -D 0.01 -c black -o right-up
l -t * -s 2 -d 5 -S UP -r 2000000 -D 0.01 -c black -o right-down
l -t * -s 0 -d 1 -S UP -r 2000000 -D 0.01 -c black -o right-down
l -t * -s 4 -d 1 -S UP -r 2000000 -D 0.01 -c black -o right-up
l -t * -s 1 -d 2 -S UP -r 1500000 -D 0.01 -c black -o center
l -t * -s 1 -d 6 -S UP -r 2000000 -D 0.01 -c black -o left
l -t * -s 2 -d 7 -S UP -r 2000000 -D 0.01 -c black -o right
q -t * -s 1 -d 2 -a 0.5
q -t * -s 2 -d 1 -a 0.5
+ -t 0 -s 0 -d 1 -p cbr -e 1000 -c 1 -i 0 -a 1 -x {0.0 3.0 0 ------- null}
- -t 0 -s 0 -d 1 -p cbr -e 1000 -c 1 -i 0 -a 1 -x {0.0 3.0 0 ------- null}
h -t 0 -s 0 -d 1 -p cbr -e 1000 -c 1 -i 0 -a 1 -x {0.0 3.0 -1 ------- null}
+ -t 0.008 -s 0 -d 1 -p cbr -e 1000 -c 1 -i 1 -a 1 -x {0.0 3.0 1 ------- null}
- -t 0.008 -s 0 -d 1 -p cbr -e 1000 -c 1 -i 1 -a 1 -x {0.0 3.0 1 ------- null}
h -t 0.008 -s 0 -d 1 -p cbr -e 1000 -c 1 -i 1 -a 1 -x {0.0 3.0 -1 ------- null}
r -t 0.014 -s 0 -d 1 -p cbr -e 1000 -c 1 -i 0 -a 1 -x {0.0 3.0 0 ------- null}
+ -t 0.014 -s 1 -d 2 -p cbr -e 1000 -c 1 -i 0 -a 1 -x {0.0 3.0 0 ------- null}
- -t 0.014 -s 1 -d 2 -p cbr -e 1000 -c 1 -i 0 -a 1 -x {0.0 3.0 0 ------- null}
h -t 0.014 -s 1 -d 2 -p cbr -e 1000 -c 1 -i 0 -a 1 -x {0.0 3.0 -1 ------- null}
+ -t 0.016 -s 0 -d 1 -p cbr -e 1000 -c 1 -i 2 -a 1 -x {0.0 3.0 2 ------- null}
- -t 0.016 -s 0 -d 1 -p cbr -e 1000 -c 1 -i 2 -a 1 -x {0.0 3.0 2 ------- null}
h -t 0.016 -s 0 -d 1 -p cbr -e 1000 -c 1 -i 2 -a 1 -x {0.0 3.0 -1 ------- null}
r -t 0.022 -s 0 -d 1 -p cbr -e 1000 -c 1 -i 1 -a 1 -x {0.0 3.0 1 ------- null}
+ -t 0.022 -s 1 -d 2 -p cbr -e 1000 -c 1 -i 1 -a 1 -x {0.0 3.0 1 ------- null}
- -t 0.022 -s 1 -d 2 -p cbr -e 1000 -c 1 -i 1 -a 1 -x {0.0 3.0 1 ------- null}
h -t 0.022 -s 1 -d 2 -p cbr -e 1000 -c 1 -i 1 -a 1 -x {0.0 3.0 -1 ------- null}
+ -t 0.024 -s 0 -d 1 -p cbr -e 1000 -c 1 -i 3 -a 1 -x {0.0 3.0 3 ------- null}
- -t 0.024 -s 0 -d 1 -p cbr -e 1000 -c 1 -i 3 -a 1 -x {0.0 3.0 3 ------- null}
h -t 0.024 -s 0 -d 1 -p cbr -e 1000 -c 1 -i 3 -a 1 -x {0.0 3.0 -1 ------- null}
r -t 0.0293333333333333 -s 1 -d 2 -p cbr -e 1000 -c 1 -i 0 -a 1 -x {0.0 3.0 0 ------- null}
+ -t 0.0293333333333333 -s 2 -d 3 -p cbr -e 1000 -c 1 -i 0 -a 1 -x {0.0 3.0 0 ------- null}
- -t 0.0293333333333333 -s 2 -d 3 -p cbr -e 1000 -c 1 -i 0 -a 1 -x {0.0 3.0 0 ------- null}
h -t 0.0293333333333333 -s 2 -d 3 -p cbr -e 1000 -c 1 -i 0 -a 1 -x {0.0 3.0 -1 ------- null}
r -t 0.03 -s 0 -d 1 -p cbr -e 1000 -c 1 -i 2 -a 1 -x {0.0 3.0 2 ------- null}
+ -t 0.03 -s 1 -d 2 -p cbr -e 1000 -c 1 -i 2 -a 1 -x {0.0 3.0 2 ------- null}
- -t 0.03 -s 1 -d 2 -p cbr -e 1000 -c 1 -i 2 -a 1 -x {0.0 3.0 2 ------- null}
h -t 0.03 -s 1 -d 2 -p cbr -e 1000 -c 1 -i 2 -a 1 -x {0.0 3.0 -1 ------- null}
+ -t 0.032 -s 0 -d 1 -p cbr -e 1000 -c 1 -i 4 -a 1 -x {0.0 3.0 4 ------- null}
- -t 0.032 -s 0 -d 1 -p cbr -e 1000 -c 1 -i 4 -a 1 -x {0.0 3.0 4 ------- null}
h -t 0.032 -s 0 -d 1 -p cbr -e 1000 -c 1 -i 4 -a 1 -x {0.0 3.0 -1 ------- null}
r -t 0.0373333333333333 -s 1 -d 2 -p cbr -e 1000 -c 1 -i 1 -a 1 -x {0.0 3.0 1 ------- null}
+ -t 0.0373333333333333 -s 2 -d 3 -p cbr -e 1000 -c 1 -i 1 -a 1 -x {0.0 3.0 1 ------- null}
- -t 0.0373333333333333 -s 2 -d 3 -p cbr -e 1000 -c 1 -i 1 -a 1 -x {0.0 3.0 1 ------- null}
h -t 0.0373333333333333 -s 2 -d 3 -p cbr -e 1000 -c 1 -i 1 -a 1 -x {0.0 3.0 -1 ------- null}
r -t 0.038 -s 0 -d 1 -p cbr -e 1000 -c 1 -i 3 -a 1 -x {0.0 3.0 3 ------- null}
+ -t 0.038 -s 1 -d 2 -p cbr -e 1000 -c 1 -i 3 -a 1 -x {0.0 3.0 3 ------- null}
- -t 0.038 -s 1 -d 2 -p cbr -e 1000 -c 1 -i 3 -a 1 -x {0.0 3.0 3 ------- null}
h -t 0.038 -s 1 -d 2 -p cbr -e 1000 -c 1 -i 3 -a 1 -x {0.0 3.0 -1 ------- null}
+ -t 0.04 -s 0 -d 1 -p cbr -e 1000 -c 1 -i 5 -a 1 -x {0.0 3.0 5 ------- null}
- -t 0.04 -s 0 -d 1 -p cbr -e 1000 -c 1 -i 5 -a 1 -x {0.0 3.0 5 ------- null}
h -t 0.04 -s 0 -d 1 -p cbr -e 1000 -c 1 -i 5 -a 1 -x {0.0 3.0 -1 ------- null}
r -t 0.0433333333333333 -s 2 -d 3 -p cbr -e 1000 -c 1 -i 0 -a 1 -x {0.0 3.0 0 ------- null}
r -t 0.0453333333333333 -s 1 -d 2 -p cbr -e 1000 -c 1 -i 2 -a 1 -x {0.0 3.0 2 ------- null}
+ -t 0.0453333333333333 -s 2 -d 3 -p cbr -e 1000 -c 1 -i 2 -a 1 -x {0.0 3.0 2 ------- null}
- -t 0.0453333333333333 -s 2 -d 3 -p cbr -e 1000 -c 1 -i 2 -a 1 -x {0.0 3.0 2 ------- null}
h -t 0.0453333333333333 -s 2 -d 3 -p cbr -e 1000 -c 1 -i 2 -a 1 -x {0.0 3.0 -1 ------- null}
r -t 0.046 -s 0 -d 1 -p cbr -e 1000 -c 1 -i 4 -a 1 -x {0.0 3.0 4 ------- null}
+ -t 0.046 -s 1 -d 2 -p cbr -e 1000 -c 1 -i 4 -a 1 -x {0.0 3.0 4 ------- null}
- -t 0.046 -s 1 -d 2 -p cbr -e 1000 -c 1 -i 4 -a 1 -x {0.0 3.0 4 ------- null}
h -t 0.046 -s 1 -d 2 -p cbr -e 1000 -c 1 -i 4 -a 1 -x {0.0 3.0 -1 ------- null}
+ -t 0.048 -s 0 -d 1 -p cbr -e 1000 -c 1 -i 6 -a 1 -x {0.0 3.0 6 ------- null}
- -t 0.048 -s 0 -d 1 -p cbr -e 1000 -c 1 -i 6 -a 1 -x {0.0 3.0 6 ------- null}
h -t 0.048 -s 0 -d 1 -p cbr -e 1000 -c 1 -i 6 -a 1 -x {0.0 3.0 -1 ------- null}
r -t 0.0513333333333333 -s 2 -d 3 -p cbr -e 1000 -c 1 -i 1 -a 1 -x {0.0 3.0 1 ------- null}
r -t 0.0533333333333333 -s 1 -d 2 -p cbr -e 1000 -c 1 -i 3 -a 1 -x {0.0 3.0 3 ------- null}
+ -t 0.0533333333333333 -s 2 -d 3 -p cbr -e 1000 -c 1 -i 3 -a 1 -x {0.0 3.0 3 ------- null}
- -t 0.0533333333333333 -s 2 -d 3 -p cbr -e 1000 -c 1 -i 3 -a 1 -x {0.0 3.0 3 ------- null}
h -t 0.0533333333333333 -s 2 -d 3 -p cbr -e 1000 -c 1 -i 3 -a 1 -x {0.0 3.0 -1 ------- null}
r -t 0.054 -s 0 -d 1 -p cbr -e 1000 -c 1 -i 5 -a 1 -x {0.0 3.0 5 ------- null}
+ -t 0.054 -s 1 -d 2 -p cbr -e 1000 -c 1 -i 5 -a 1 -x {0.0 3.0 5 ------- null}
- -t 0.054 -s 1 -d 2 -p cbr -e 1000 -c 1 -i 5 -a 1 -x {0.0 3.0 5 ------- null}
h -t 0.054 -s 1 -d 2 -p cbr -e 1000 -c 1 -i 5 -a 1 -x {0.0 3.0 -1 ------- null}
+ -t 0.056 -s 0 -d 1 -p cbr -e 1000 -c 1 -i 7 -a 1 -x {0.0 3.0 7 ------- null}
- -t 0.056 -s 0 -d 1 -p cbr -e 1000 -c 1 -i 7 -a 1 -x {0.0 3.0 7 ------- null}
h -t 0.056 -s 0 -d 1 -p cbr -e 1000 -c 1 -i 7 -a 1 -x {0.0 3.0 -1 ------- null}
r -t 0.0593333333333333 -s 2 -d 3 -p cbr -e 1000 -c 1 -i 2 -a 1 -x {0.0 3.0 2 ------- null}
r -t 0.0613333333333333 -s 1 -d 2 -p cbr -e 1000 -c 1 -i 4 -a 1 -x {0.0 3.0 4 ------- null}
+ -t 0.0613333333333333 -s 2 -d 3 -p cbr -e 1000 -c 1 -i 4 -a 1 -x {0.0 3.0 4 ------- null}
- -t 0.0613333333333333 -s 2 -d 3 -p cbr -e 1000 -c 1 -i 4 -a 1 -x {0.0 3.0 4 ------- null}
h -t 0.0613333333333333 -s 2 -d 3 -p cbr -e 1000 -c 1 -i 4 -a 1 -x {0.0 3.0 -1 ------- null}
r -t 0.062 -s 0 -d 1 -p cbr -e 1000 -c 1 -i 6 -a 1 -x {0.0 3.0 6 ------- null}
+ -t 0.062 -s 1 -d 2 -p cbr -e 1000 -c 1 -i 6 -a 1 -x {0.0 3.0 6 ------- null}
- -t 0.062 -s 1 -d 2 -p cbr -e 1000 -c 1 -i 6 -a 1 -x {0.0 3.0 6 ------- null}
h -t 0.062 -s 1 -d 2 -p cbr -e 1000 -c 1 -i 6 -a 1 -x {0.0 3.0 -1 ------- null}
+ -t 0.064 -s 0 -d 1 -p cbr -e 1000 -c 1 -i 8 -a 1 -x {0.0 3.0 8 ------- null}
- -t 0.064 -s 0 -d 1 -p cbr -e 1000 -c 1 -i 8 -a 1 -x {0.0 3.0 8 ------- null}
h -t 0.064 -s 0 -d 1 -p cbr -e 1000 -c 1 -i 8 -a 1 -x {0.0 3.0 -1 ------- null}
r -t 0.0673333333333333 -s 2 -d 3 -p cbr -e 1000 -c 1 -i 3 -a 1 -x {0.0 3.0 3 ------- null}
r -t 0.0693333333333333 -s 1 -d 2 -p cbr -e 1000 -c 1 -i 5 -a 1 -x {0.0 3.0 5 ------- null}
+ -t 0.0693333333333333 -s 2 -d 3 -p cbr -e 1000 -c 1 -i 5 -a 1 -x {0.0 3.0 5 ------- null}
- -t 0.0693333333333333 -s 2 -d 3 -p cbr -e 1000 -c 1 -i 5 -a 1 -x {0.0 3.0 5 ------- null}
h -t 0.0693333333333333 -s 2 -d 3 -p cbr -e 1000 -c 1 -i 5 -a 1 -x {0.0 3.0 -1 ------- null}
r -t 0.07 -s 0 -d 1 -p cbr -e 1000 -c 1 -i 7 -a 1 -x {0.0 3.0 7 ------- null}
+ -t 0.07 -s 1 -d 2 -p cbr -e 1000 -c 1 -i 7 -a 1 -x {0.0 3.0 7 ------- null}
- -t 0.07 -s 1 -d 2 -p cbr -e 1000 -c 1 -i 7 -a 1 -x {0.0 3.0 7 ------- null}
h -t 0.07 -s 1 -d 2 -p cbr -e 1000 -c 1 -i 7 -a 1 -x {0.0 3.0 -1 ------- null}
+ -t 0.072 -s 0 -d 1 -p cbr -e 1000 -c 1 -i 9 -a 1 -x {0.0 3.0 9 ------- null}
- -t 0.072 -s 0 -d 1 -p cbr -e 1000 -c 1 -i 9 -a 1 -x {0.0 3.0 9 ------- null}
h -t 0.072 -s 0 -d 1 -p cbr -e 1000 -c 1 -i 9 -a 1 -x {0.0 3.0 -1 ------- null}
r -t 0.0753333333333333 -s 2 -d 3 -p cbr -e 1000 -c 1 -i 4 -a 1 -x {0.0 3.0 4 ------- null}
r -t 0.0773333333333333 -s 1 -d 2 -p cbr -e 1000 -c 1 -i 6 -a 1 -x {0.0 3.0 6 ------- null}
+ -t 0.0773333333333333 -s 2 -d 3 -p cbr -e 1000 -c 1 -i 6 -a 1 -x {0.0 3.0 6 ------- null}
- -t 0.0773333333333333 -s 2 -d 3 -p cbr -e 1000 -c 1 -i 6 -a 1 -x {0.0 3.0 6 ------- null}
h -t 0.0773333333333333 -s 2 -d 3 -p cbr -e 1000 -c 1 -i 6 -a 1 -x {0.0 3.0 -1 ------- null}
r -t 0.078 -s 0 -d 1 -p cbr -e 1000 -c 1 -i 8 -a 1 -x {0.0 3.0 8 ------- null}
+ -t 0.078 -s 1 -d 2 -p cbr -e 1000 -c 1 -i 8 -a 1 -x {0.0 3.0 8 ------- null}
- -t 0.078 -s 1 -d 2 -p cbr -e 1000 -c 1 -i 8 -a 1 -x {0.0 3.0 8 ------- null}
h -t 0.078 -s 1 -d 2 -p cbr -e 1000 -c 1 -i 8 -a 1 -x {0.0 3.0 -1 ------- null}
+ -t 0.08 -s 0 -d 1 -p cbr -e 1000 -c 1 -i 10 -a 1 -x {0.0 3.0 10 ------- null}
- -t 0.08 -s 0 -d 1 -p cbr -e 1000 -c 1 -i 10 -a 1 -x {0.0 3.0 10 ------- null}
h -t 0.08 -s 0 -d 1 -p cbr -e 1000 -c 1 -i 10 -a 1 -x {0.0 3.0 -1 ------- null}
r -t 0.0833333333333333 -s 2 -d 3 -p cbr -e 1000 -c 1 -i 5 -a 1 -x {0.0 3.0 5 ------- null}
r -t 0.0853333333333333 -s 1 -d 2 -p cbr -e 1000 -c 1 -i 7 -a 1 -x {0.0 3.0 7 ------- null}
+ -t 0.0853333333333333 -s 2 -d 3 -p cbr -e 1000 -c 1 -i 7 -a 1 -x {0.0 3.0 7 ------- null}
- -t 0.0853333333333333 -s 2 -d 3 -p cbr -e 1000 -c 1 -i 7 -a 1 -x {0.0 3.0 7 ------- null}
h -t 0.0853333333333333 -s 2 -d 3 -p cbr -e 1000 -c 1 -i 7 -a 1 -x {0.0 3.0 -1 ------- null}
r -t 0.086 -s 0 -d 1 -p cbr -e 1000 -c 1 -i 9 -a 1 -x {0.0 3.0 9 ------- null}
+ -t 0.086 -s 1 -d 2 -p cbr -e 1000 -c 1 -i 9 -a 1 -x {0.0 3.0 9 ------- null}
- -t 0.086 -s 1 -d 2 -p cbr -e 1000 -c 1 -i 9 -a 1 -x {0.0 3.0 9 ------- null}
h -t 0.086 -s 1 -d 2 -p cbr -e 1000 -c 1 -i 9 -a 1 -x {0.0 3.0 -1 ------- null}
+ -t 0.088 -s 0 -d 1 -p cbr -e 1000 -c 1 -i 11 -a 1 -x {0.0 3.0 11 ------- null}
- -t 0.088 -s 0 -d 1 -p cbr -e 1000 -c 1 -i 11 -a 1 -x {0.0 3.0 11 ------- null}
h -t 0.088 -s 0 -d 1 -p cbr -e 1000 -c 1 -i 11 -a 1 -x {0.0 3.0 -1 ------- null}
r -t 0.0913333333333333 -s 2 -d 3 -p cbr -e 1000 -c 1 -i 6 -a 1 -x {0.0 3.0 6 ------- null}
r -t 0.0933333333333333 -s 1 -d 2 -p cbr -e 1000 -c 1 -i 8 -a 1 -x {0.0 3.0 8 ------- null}
+ -t 0.0933333333333333 -s 2 -d 3 -p cbr -e 1000 -c 1 -i 8 -a 1 -x {0.0 3.0 8 ------- null}
- -t 0.0933333333333333 -s 2 -d 3 -p cbr -e 1000 -c 1 -i 8 -a 1 -x {0.0 3.0 8 ------- null}
h -t 0.0933333333333333 -s 2 -d 3 -p cbr -e 1000 -c 1 -i 8 -a 1 -x {0.0 3.0 -1 ------- null}
r -t 0.094 -s 0 -d 1 -p cbr -e 1000 -c 1 -i 10 -a 1 -x {0.0 3.0 10 ------- null}
+ -t 0.094 -s 1 -d 2 -p cbr -e 1000 -c 1 -i 10 -a 1 -x {0.0 3.0 10 ------- null}
- -t 0.094 -s 1 -d 2 -p cbr -e 1000 -c 1 -i 10 -a 1 -x {0.0 3.0 10 ------- null}
h -t 0.094 -s 1 -d 2 -p cbr -e 1000 -c 1 -i 10 -a 1 -x {0.0 3.0 -1 ------- null}
+ -t 0.096 -s 0 -d 1 -p cbr -e 1000 -c 1 -i 12 -a 1 -x {0.0 3.0 12 ------- null}
- -t 0.096 -s 0 -d 1 -p cbr -e 1000 -c 1 -i 12 -a 1 -x {0.0 3.0 12 ------- null}
h -t 0.096 -s 0 -d 1 -p cbr -e 1000 -c 1 -i 12 -a 1 -x {0.0 3.0 -1 ------- null}
r -t 0.0993333333333333 -s 2 -d 3 -p cbr -e 1000 -c 1 -i 7 -a 1 -x {0.0 3.0 7 ------- null}
+ -t 0.1 -s 4 -d 1 -p cbr -e 1000 -c 2 -i 13 -a 2 -x {4.0 5.0 0 ------- null}
- -t 0.1 -s 4 -d 1 -p cbr -e 1000 -c 2 -i 13 -a 2 -x {4.0 5.0 0 ------- null}
h -t 0.1 -s 4 -d 1 -p cbr -e 1000 -c 2 -i 13 -a 2 -x {4.0 5.0 -1 ------- null}
r -t 0.101333333333333 -s 1 -d 2 -p cbr -e 1000 -c 1 -i 9 -a 1 -x {0.0 3.0 9 ------- null}
+ -t 0.101333333333333 -s 2 -d 3 -p cbr -e 1000 -c 1 -i 9 -a 1 -x {0.0 3.0 9 ------- null}
- -t 0.101333333333333 -s 2 -d 3 -p cbr -e 1000 -c 1 -i 9 -a 1 -x {0.0 3.0 9 ------- null}
h -t 0.101333333333333 -s 2 -d 3 -p cbr -e 1000 -c 1 -i 9 -a 1 -x {0.0 3.0 -1 ------- null}
r -t 0.102 -s 0 -d 1 -p cbr -e 1000 -c 1 -i 11 -a 1 -x {0.0 3.0 11 ------- null}
+ -t 0.102 -s 1 -d 2 -p cbr -e 1000 -c 1 -i 11 -a 1 -x {0.0 3.0 11 ------- null}
- -t 0.102 -s 1 -d 2 -p cbr -e 1000 -c 1 -i 11 -a 1 -x {0.0 3.0 11 ------- null}
h -t 0.102 -s 1 -d 2 -p cbr -e 1000 -c 1 -i 11 -a 1 -x {0.0 3.0 -1 ------- null}
+ -t 0.104 -s 0 -d 1 -p cbr -e 1000 -c 1 -i 14 -a 1 -x {0.0 3.0 13 ------- null}
- -t 0.104 -s 0 -d 1 -p cbr -e 1000 -c 1 -i 14 -a 1 -x {0.0 3.0 13 ------- null}
h -t 0.104 -s 0 -d 1 -p cbr -e 1000 -c 1 -i 14 -a 1 -x {0.0 3.0 -1 ------- null}
r -t 0.107333333333333 -s 2 -d 3 -p cbr -e 1000 -c 1 -i 8 -a 1 -x {0.0 3.0 8 ------- null}
+ -t 0.108 -s 4 -d 1 -p cbr -e 1000 -c 2 -i 15 -a 2 -x {4.0 5.0 1 ------- null}
- -t 0.108 -s 4 -d 1 -p cbr -e 1000 -c 2 -i 15 -a 2 -x {4.0 5.0 1 ------- null}
h -t 0.108 -s 4 -d 1 -p cbr -e 1000 -c 2 -i 15 -a 2 -x {4.0 5.0 -1 ------- null}
r -t 0.109333333333333 -s 1 -d 2 -p cbr -e 1000 -c 1 -i 10 -a 1 -x {0.0 3.0 10 ------- null}
+ -t 0.109333333333333 -s 2 -d 3 -p cbr -e 1000 -c 1 -i 10 -a 1 -x {0.0 3.0 10 ------- null}
- -t 0.109333333333333 -s 2 -d 3 -p cbr -e 1000 -c 1 -i 10 -a 1 -x {0.0 3.0 10 ------- null}
h -t 0.109333333333333 -s 2 -d 3 -p cbr -e 1000 -c 1 -i 10 -a 1 -x {0.0 3.0 -1 ------- null}
r -t 0.11 -s 0 -d 1 -p cbr -e 1000 -c 1 -i 12 -a 1 -x {0.0 3.0 12 ------- null}
+ -t 0.11 -s 1 -d 2 -p cbr -e 1000 -c 1 -i 12 -a 1 -x {0.0 3.0 12 ------- null}
- -t 0.11 -s 1 -d 2 -p cbr -e 1000 -c 1 -i 12 -a 1 -x {0.0 3.0 12 ------- null}
h -t 0.11 -s 1 -d 2 -p cbr -e 1000 -c 1 -i 12 -a 1 -x {0.0 3.0 -1 ------- null}
+ -t 0.112 -s 0 -d 1 -p cbr -e 1000 -c 1 -i 16 -a 1 -x {0.0 3.0 14 ------- null}
- -t 0.112 -s 0 -d 1 -p cbr -e 1000 -c 1 -i 16 -a 1 -x {0.0 3.0 14 ------- null}
h -t 0.112 -s 0 -d 1 -p cbr -e 1000 -c 1 -i 16 -a 1 -x {0.0 3.0 -1 ------- null}
r -t 0.114 -s 4 -d 1 -p cbr -e 1000 -c 2 -i 13 -a 2 -x {4.0 5.0 0 ------- null}
+ -t 0.114 -s 1 -d 2 -p cbr -e 1000 -c 2 -i 13 -a 2 -x {4.0 5.0 0 ------- null}
r -t 0.115333333333333 -s 2 -d 3 -p cbr -e 1000 -c 1 -i 9 -a 1 -x {0.0 3.0 9 ------- null}
- -t 0.115333333333333 -s 1 -d 2 -p cbr -e 1000 -c 2 -i 13 -a 2 -x {4.0 5.0 0 ------- null}
h -t 0.115333333333333 -s 1 -d 2 -p cbr -e 1000 -c 2 -i 13 -a 2 -x {4.0 5.0 -1 ------- null}
+ -t 0.116 -s 4 -d 1 -p cbr -e 1000 -c 2 -i 17 -a 2 -x {4.0 5.0 2 ------- null}
- -t 0.116 -s 4 -d 1 -p cbr -e 1000 -c 2 -i 17 -a 2 -x {4.0 5.0 2 ------- null}
h -t 0.116 -s 4 -d 1 -p cbr -e 1000 -c 2 -i 17 -a 2 -x {4.0 5.0 -1 ------- null}
r -t 0.117333333333333 -s 1 -d 2 -p cbr -e 1000 -c 1 -i 11 -a 1 -x {0.0 3.0 11 ------- null}
+ -t 0.117333333333333 -s 2 -d 3 -p cbr -e 1000 -c 1 -i 11 -a 1 -x {0.0 3.0 11 ------- null}
- -t 0.117333333333333 -s 2 -d 3 -p cbr -e 1000 -c 1 -i 11 -a 1 -x {0.0 3.0 11 ------- null}
h -t 0.117333333333333 -s 2 -d 3 -p cbr -e 1000 -c 1 -i 11 -a 1 -x {0.0 3.0 -1 ------- null}
r -t 0.118 -s 0 -d 1 -p cbr -e 1000 -c 1 -i 14 -a 1 -x {0.0 3.0 13 ------- null}
+ -t 0.118 -s 1 -d 2 -p cbr -e 1000 -c 1 -i 14 -a 1 -x {0.0 3.0 13 ------- null}
+ -t 0.12 -s 0 -d 1 -p cbr -e 1000 -c 1 -i 18 -a 1 -x {0.0 3.0 15 ------- null}
- -t 0.12 -s 0 -d 1 -p cbr -e 1000 -c 1 -i 18 -a 1 -x {0.0 3.0 15 ------- null}
h -t 0.12 -s 0 -d 1 -p cbr -e 1000 -c 1 -i 18 -a 1 -x {0.0 3.0 -1 ------- null}
- -t 0.120666666666667 -s 1 -d 2 -p cbr -e 1000 -c 1 -i 14 -a 1 -x {0.0 3.0 13 ------- null}
h -t 0.120666666666667 -s 1 -d 2 -p cbr -e 1000 -c 1 -i 14 -a 1 -x {0.0 3.0 -1 ------- null}
r -t 0.122 -s 4 -d 1 -p cbr -e 1000 -c 2 -i 15 -a 2 -x {4.0 5.0 1 ------- null}
+ -t 0.122 -s 1 -d 2 -p cbr -e 1000 -c 2 -i 15 -a 2 -x {4.0 5.0 1 ------- null}
r -t 0.123333333333333 -s 2 -d 3 -p cbr -e 1000 -c 1 -i 10 -a 1 -x {0.0 3.0 10 ------- null}
+ -t 0.124 -s 4 -d 1 -p cbr -e 1000 -c 2 -i 19 -a 2 -x {4.0 5.0 3 ------- null}
- -t 0.124 -s 4 -d 1 -p cbr -e 1000 -c 2 -i 19 -a 2 -x {4.0 5.0 3 ------- null}
h -t 0.124 -s 4 -d 1 -p cbr -e 1000 -c 2 -i 19 -a 2 -x {4.0 5.0 -1 ------- null}
r -t 0.125333333333333 -s 1 -d 2 -p cbr -e 1000 -c 1 -i 12 -a 1 -x {0.0 3.0 12 ------- null}
+ -t 0.125333333333333 -s 2 -d 3 -p cbr -e 1000 -c 1 -i 12 -a 1 -x {0.0 3.0 12 ------- null}
- -t 0.125333333333333 -s 2 -d 3 -p cbr -e 1000 -c 1 -i 12 -a 1 -x {0.0 3.0 12 ------- null}
h -t 0.125333333333333 -s 2 -d 3 -p cbr -e 1000 -c 1 -i 12 -a 1 -x {0.0 3.0 -1 ------- null}
- -t 0.126 -s 1 -d 2 -p cbr -e 1000 -c 2 -i 15 -a 2 -x {4.0 5.0 1 ------- null}
h -t 0.126 -s 1 -d 2 -p cbr -e 1000 -c 2 -i 15 -a 2 -x {4.0 5.0 -1 ------- null}
r -t 0.126 -s 0 -d 1 -p cbr -e 1000 -c 1 -i 16 -a 1 -x {0.0 3.0 14 ------- null}
+ -t 0.126 -s 1 -d 2 -p cbr -e 1000 -c 1 -i 16 -a 1 -x {0.0 3.0 14 ------- null}
+ -t 0.128 -s 0 -d 1 -p cbr -e 1000 -c 1 -i 20 -a 1 -x {0.0 3.0 16 ------- null}
- -t 0.128 -s 0 -d 1 -p cbr -e 1000 -c 1 -i 20 -a 1 -x {0.0 3.0 16 ------- null}
h -t 0.128 -s 0 -d 1 -p cbr -e 1000 -c 1 -i 20 -a 1 -x {0.0 3.0 -1 ------- null}
r -t 0.13 -s 4 -d 1 -p cbr -e 1000 -c 2 -i 17 -a 2 -x {4.0 5.0 2 ------- null}
+ -t 0.13 -s 1 -d 2 -p cbr -e 1000 -c 2 -i 17 -a 2 -x {4.0 5.0 2 ------- null}
r -t 0.130666666666667 -s 1 -d 2 -p cbr -e 1000 -c 2 -i 13 -a 2 -x {4.0 5.0 0 ------- null}
+ -t 0.130666666666667 -s 2 -d 5 -p cbr -e 1000 -c 2 -i 13 -a 2 -x {4.0 5.0 0 ------- null}
- -t 0.130666666666667 -s 2 -d 5 -p cbr -e 1000 -c 2 -i 13 -a 2 -x {4.0 5.0 0 ------- null}
h -t 0.130666666666667 -s 2 -d 5 -p cbr -e 1000 -c 2 -i 13 -a 2 -x {4.0 5.0 -1 ------- null}
r -t 0.131333333333333 -s 2 -d 3 -p cbr -e 1000 -c 1 -i 11 -a 1 -x {0.0 3.0 11 ------- null}
- -t 0.131333333333333 -s 1 -d 2 -p cbr -e 1000 -c 1 -i 16 -a 1 -x {0.0 3.0 14 ------- null}
h -t 0.131333333333333 -s 1 -d 2 -p cbr -e 1000 -c 1 -i 16 -a 1 -x {0.0 3.0 -1 ------- null}
+ -t 0.132 -s 4 -d 1 -p cbr -e 1000 -c 2 -i 21 -a 2 -x {4.0 5.0 4 ------- null}
- -t 0.132 -s 4 -d 1 -p cbr -e 1000 -c 2 -i 21 -a 2 -x {4.0 5.0 4 ------- null}
h -t 0.132 -s 4 -d 1 -p cbr -e 1000 -c 2 -i 21 -a 2 -x {4.0 5.0 -1 ------- null}
r -t 0.134 -s 0 -d 1 -p cbr -e 1000 -c 1 -i 18 -a 1 -x {0.0 3.0 15 ------- null}
+ -t 0.134 -s 1 -d 2 -p cbr -e 1000 -c 1 -i 18 -a 1 -x {0.0 3.0 15 ------- null}
r -t 0.136 -s 1 -d 2 -p cbr -e 1000 -c 1 -i 14 -a 1 -x {0.0 3.0 13 ------- null}
+ -t 0.136 -s 2 -d 3 -p cbr -e 1000 -c 1 -i 14 -a 1 -x {0.0 3.0 13 ------- null}
- -t 0.136 -s 2 -d 3 -p cbr -e 1000 -c 1 -i 14 -a 1 -x {0.0 3.0 13 ------- null}
h -t 0.136 -s 2 -d 3 -p cbr -e 1000 -c 1 -i 14 -a 1 -x {0.0 3.0 -1 ------- null}
+ -t 0.136 -s 0 -d 1 -p cbr -e 1000 -c 1 -i 22 -a 1 -x {0.0 3.0 17 ------- null}
- -t 0.136 -s 0 -d 1 -p cbr -e 1000 -c 1 -i 22 -a 1 -x {0.0 3.0 17 ------- null}
h -t 0.136 -s 0 -d 1 -p cbr -e 1000 -c 1 -i 22 -a 1 -x {0.0 3.0 -1 ------- null}
- -t 0.136666666666667 -s 1 -d 2 -p cbr -e 1000 -c 2 -i 17 -a 2 -x {4.0 5.0 2 ------- null}
h -t 0.136666666666667 -s 1 -d 2 -p cbr -e 1000 -c 2 -i 17 -a 2 -x {4.0 5.0 -1 ------- null}
r -t 0.138 -s 4 -d 1 -p cbr -e 1000 -c 2 -i 19 -a 2 -x {4.0 5.0 3 ------- null}
+ -t 0.138 -s 1 -d 2 -p cbr -e 1000 -c 2 -i 19 -a 2 -x {4.0 5.0 3 ------- null}
r -t 0.139333333333333 -s 2 -d 3 -p cbr -e 1000 -c 1 -i 12 -a 1 -x {0.0 3.0 12 ------- null}
+ -t 0.14 -s 4 -d 1 -p cbr -e 1000 -c 2 -i 23 -a 2 -x {4.0 5.0 5 ------- null}
- -t 0.14 -s 4 -d 1 -p cbr -e 1000 -c 2 -i 23 -a 2 -x {4.0 5.0 5 ------- null}
h -t 0.14 -s 4 -d 1 -p cbr -e 1000 -c 2 -i 23 -a 2 -x {4.0 5.0 -1 ------- null}
r -t 0.141333333333333 -s 1 -d 2 -p cbr -e 1000 -c 2 -i 15 -a 2 -x {4.0 5.0 1 ------- null}
+ -t 0.141333333333333 -s 2 -d 5 -p cbr -e 1000 -c 2 -i 15 -a 2 -x {4.0 5.0 1 ------- null}
- -t 0.141333333333333 -s 2 -d 5 -p cbr -e 1000 -c 2 -i 15 -a 2 -x {4.0 5.0 1 ------- null}
h -t 0.141333333333333 -s 2 -d 5 -p cbr -e 1000 -c 2 -i 15 -a 2 -x {4.0 5.0 -1 ------- null}
- -t 0.142 -s 1 -d 2 -p cbr -e 1000 -c 1 -i 18 -a 1 -x {0.0 3.0 15 ------- null}
h -t 0.142 -s 1 -d 2 -p cbr -e 1000 -c 1 -i 18 -a 1 -x {0.0 3.0 -1 ------- null}
r -t 0.142 -s 0 -d 1 -p cbr -e 1000 -c 1 -i 20 -a 1 -x {0.0 3.0 16 ------- null}
+ -t 0.142 -s 1 -d 2 -p cbr -e 1000 -c 1 -i 20 -a 1 -x {0.0 3.0 16 ------- null}
+ -t 0.144 -s 0 -d 1 -p cbr -e 1000 -c 1 -i 24 -a 1 -x {0.0 3.0 18 ------- null}
- -t 0.144 -s 0 -d 1 -p cbr -e 1000 -c 1 -i 24 -a 1 -x {0.0 3.0 18 ------- null}
h -t 0.144 -s 0 -d 1 -p cbr -e 1000 -c 1 -i 24 -a 1 -x {0.0 3.0 -1 ------- null}
r -t 0.144666666666667 -s 2 -d 5 -p cbr -e 1000 -c 2 -i 13 -a 2 -x {4.0 5.0 0 ------- null}
r -t 0.146 -s 4 -d 1 -p cbr -e 1000 -c 2 -i 21 -a 2 -x {4.0 5.0 4 ------- null}
+ -t 0.146 -s 1 -d 2 -p cbr -e 1000 -c 2 -i 21 -a 2 -x {4.0 5.0 4 ------- null}
r -t 0.146666666666667 -s 1 -d 2 -p cbr -e 1000 -c 1 -i 16 -a 1 -x {0.0 3.0 14 ------- null}
+ -t 0.146666666666667 -s 2 -d 3 -p cbr -e 1000 -c 1 -i 16 -a 1 -x {0.0 3.0 14 ------- null}
- -t 0.146666666666667 -s 2 -d 3 -p cbr -e 1000 -c 1 -i 16 -a 1 -x {0.0 3.0 14 ------- null}
h -t 0.146666666666667 -s 2 -d 3 -p cbr -e 1000 -c 1 -i 16 -a 1 -x {0.0 3.0 -1 ------- null}
- -t 0.147333333333333 -s 1 -d 2 -p cbr -e 1000 -c 2 -i 19 -a 2 -x {4.0 5.0 3 ------- null}
h -t 0.147333333333333 -s 1 -d 2 -p cbr -e 1000 -c 2 -i 19 -a 2 -x {4.0 5.0 -1 ------- null}
+ -t 0.148 -s 4 -d 1 -p cbr -e 1000 -c 2 -i 25 -a 2 -x {4.0 5.0 6 ------- null}
- -t 0.148 -s 4 -d 1 -p cbr -e 1000 -c 2 -i 25 -a 2 -x {4.0 5.0 6 ------- null}
h -t 0.148 -s 4 -d 1 -p cbr -e 1000 -c 2 -i 25 -a 2 -x {4.0 5.0 -1 ------- null}
r -t 0.15 -s 2 -d 3 -p cbr -e 1000 -c 1 -i 14 -a 1 -x {0.0 3.0 13 ------- null}
r -t 0.15 -s 0 -d 1 -p cbr -e 1000 -c 1 -i 22 -a 1 -x {0.0 3.0 17 ------- null}
+ -t 0.15 -s 1 -d 2 -p cbr -e 1000 -c 1 -i 22 -a 1 -x {0.0 3.0 17 ------- null}
r -t 0.152 -s 1 -d 2 -p cbr -e 1000 -c 2 -i 17 -a 2 -x {4.0 5.0 2 ------- null}
+ -t 0.152 -s 2 -d 5 -p cbr -e 1000 -c 2 -i 17 -a 2 -x {4.0 5.0 2 ------- null}
- -t 0.152 -s 2 -d 5 -p cbr -e 1000 -c 2 -i 17 -a 2 -x {4.0 5.0 2 ------- null}
h -t 0.152 -s 2 -d 5 -p cbr -e 1000 -c 2 -i 17 -a 2 -x {4.0 5.0 -1 ------- null}
+ -t 0.152 -s 0 -d 1 -p cbr -e 1000 -c 1 -i 26 -a 1 -x {0.0 3.0 19 ------- null}
- -t 0.152 -s 0 -d 1 -p cbr -e 1000 -c 1 -i 26 -a 1 -x {0.0 3.0 19 ------- null}
h -t 0.152 -s 0 -d 1 -p cbr -e 1000 -c 1 -i 26 -a 1 -x {0.0 3.0 -1 ------- null}
- -t 0.152666666666667 -s 1 -d 2 -p cbr -e 1000 -c 1 -i 20 -a 1 -x {0.0 3.0 16 ------- null}
h -t 0.152666666666667 -s 1 -d 2 -p cbr -e 1000 -c 1 -i 20 -a 1 -x {0.0 3.0 -1 ------- null}
r -t 0.154 -s 4 -d 1 -p cbr -e 1000 -c 2 -i 23 -a 2 -x {4.0 5.0 5 ------- null}
+ -t 0.154 -s 1 -d 2 -p cbr -e 1000 -c 2 -i 23 -a 2 -x {4.0 5.0 5 ------- null}
r -t 0.155333333333333 -s 2 -d 5 -p cbr -e 1000 -c 2 -i 15 -a 2 -x {4.0 5.0 1 ------- null}
+ -t 0.156 -s 4 -d 1 -p cbr -e 1000 -c 2 -i 27 -a 2 -x {4.0 5.0 7 ------- null}
- -t 0.156 -s 4 -d 1 -p cbr -e 1000 -c 2 -i 27 -a 2 -x {4.0 5.0 7 ------- null}
h -t 0.156 -s 4 -d 1 -p cbr -e 1000 -c 2 -i 27 -a 2 -x {4.0 5.0 -1 ------- null}
r -t 0.157333333333333 -s 1 -d 2 -p cbr -e 1000 -c 1 -i 18 -a 1 -x {0.0 3.0 15 ------- null}
+ -t 0.157333333333333 -s 2 -d 3 -p cbr -e 1000 -c 1 -i 18 -a 1 -x {0.0 3.0 15 ------- null}
- -t 0.157333333333333 -s 2 -d 3 -p cbr -e 1000 -c 1 -i 18 -a 1 -x {0.0 3.0 15 ------- null}
h -t 0.157333333333333 -s 2 -d 3 -p cbr -e 1000 -c 1 -i 18 -a 1 -x {0.0 3.0 -1 ------- null}
- -t 0.158 -s 1 -d 2 -p cbr -e 1000 -c 2 -i 21 -a 2 -x {4.0 5.0 4 ------- null}
h -t 0.158 -s 1 -d 2 -p cbr -e 1000 -c 2 -i 21 -a 2 -x {4.0 5.0 -1 ------- null}
r -t 0.158 -s 0 -d 1 -p cbr -e 1000 -c 1 -i 24 -a 1 -x {0.0 3.0 18 ------- null}
+ -t 0.158 -s 1 -d 2 -p cbr -e 1000 -c 1 -i 24 -a 1 -x {0.0 3.0 18 ------- null}
+ -t 0.16 -s 0 -d 1 -p cbr -e 1000 -c 1 -i 28 -a 1 -x {0.0 3.0 20 ------- null}
- -t 0.16 -s 0 -d 1 -p cbr -e 1000 -c 1 -i 28 -a 1 -x {0.0 3.0 20 ------- null}
h -t 0.16 -s 0 -d 1 -p cbr -e 1000 -c 1 -i 28 -a 1 -x {0.0 3.0 -1 ------- null}
r -t 0.160666666666667 -s 2 -d 3 -p cbr -e 1000 -c 1 -i 16 -a 1 -x {0.0 3.0 14 ------- null}
r -t 0.162 -s 4 -d 1 -p cbr -e 1000 -c 2 -i 25 -a 2 -x {4.0 5.0 6 ------- null}
+ -t 0.162 -s 1 -d 2 -p cbr -e 1000 -c 2 -i 25 -a 2 -x {4.0 5.0 6 ------- null}
r -t 0.162666666666667 -s 1 -d 2 -p cbr -e 1000 -c 2 -i 19 -a 2 -x {4.0 5.0 3 ------- null}
+ -t 0.162666666666667 -s 2 -d 5 -p cbr -e 1000 -c 2 -i 19 -a 2 -x {4.0 5.0 3 ------- null}
- -t 0.162666666666667 -s 2 -d 5 -p cbr -e 1000 -c 2 -i 19 -a 2 -x {4.0 5.0 3 ------- null}
h -t 0.162666666666667 -s 2 -d 5 -p cbr -e 1000 -c 2 -i 19 -a 2 -x {4.0 5.0 -1 ------- null}
- -t 0.163333333333333 -s 1 -d 2 -p cbr -e 1000 -c 1 -i 22 -a 1 -x {0.0 3.0 17 ------- null}
h -t 0.163333333333333 -s 1 -d 2 -p cbr -e 1000 -c 1 -i 22 -a 1 -x {0.0 3.0 -1 ------- null}
+ -t 0.164 -s 4 -d 1 -p cbr -e 1000 -c 2 -i 29 -a 2 -x {4.0 5.0 8 ------- null}
- -t 0.164 -s 4 -d 1 -p cbr -e 1000 -c 2 -i 29 -a 2 -x {4.0 5.0 8 ------- null}
h -t 0.164 -s 4 -d 1 -p cbr -e 1000 -c 2 -i 29 -a 2 -x {4.0 5.0 -1 ------- null}
r -t 0.166 -s 2 -d 5 -p cbr -e 1000 -c 2 -i 17 -a 2 -x {4.0 5.0 2 ------- null}
r -t 0.166 -s 0 -d 1 -p cbr -e 1000 -c 1 -i 26 -a 1 -x {0.0 3.0 19 ------- null}
+ -t 0.166 -s 1 -d 2 -p cbr -e 1000 -c 1 -i 26 -a 1 -x {0.0 3.0 19 ------- null}
r -t 0.168 -s 1 -d 2 -p cbr -e 1000 -c 1 -i 20 -a 1 -x {0.0 3.0 16 ------- null}
+ -t 0.168 -s 2 -d 3 -p cbr -e 1000 -c 1 -i 20 -a 1 -x {0.0 3.0 16 ------- null}
- -t 0.168 -s 2 -d 3 -p cbr -e 1000 -c 1 -i 20 -a 1 -x {0.0 3.0 16 ------- null}
h -t 0.168 -s 2 -d 3 -p cbr -e 1000 -c 1 -i 20 -a 1 -x {0.0 3.0 -1 ------- null}
+ -t 0.168 -s 0 -d 1 -p cbr -e 1000 -c 1 -i 30 -a 1 -x {0.0 3.0 21 ------- null}
- -t 0.168 -s 0 -d 1 -p cbr -e 1000 -c 1 -i 30 -a 1 -x {0.0 3.0 21 ------- null}
h -t 0.168 -s 0 -d 1 -p cbr -e 1000 -c 1 -i 30 -a 1 -x {0.0 3.0 -1 ------- null}
- -t 0.168666666666667 -s 1 -d 2 -p cbr -e 1000 -c 2 -i 23 -a 2 -x {4.0 5.0 5 ------- null}
h -t 0.168666666666667 -s 1 -d 2 -p cbr -e 1000 -c 2 -i 23 -a 2 -x {4.0 5.0 -1 ------- null}
r -t 0.17 -s 4 -d 1 -p cbr -e 1000 -c 2 -i 27 -a 2 -x {4.0 5.0 7 ------- null}
+ -t 0.17 -s 1 -d 2 -p cbr -e 1000 -c 2 -i 27 -a 2 -x {4.0 5.0 7 ------- null}
r -t 0.171333333333333 -s 2 -d 3 -p cbr -e 1000 -c 1 -i 18 -a 1 -x {0.0 3.0 15 ------- null}
+ -t 0.172 -s 4 -d 1 -p cbr -e 1000 -c 2 -i 31 -a 2 -x {4.0 5.0 9 ------- null}
- -t 0.172 -s 4 -d 1 -p cbr -e 1000 -c 2 -i 31 -a 2 -x {4.0 5.0 9 ------- null}
h -t 0.172 -s 4 -d 1 -p cbr -e 1000 -c 2 -i 31 -a 2 -x {4.0 5.0 -1 ------- null}
r -t 0.173333333333333 -s 1 -d 2 -p cbr -e 1000 -c 2 -i 21 -a 2 -x {4.0 5.0 4 ------- null}
+ -t 0.173333333333333 -s 2 -d 5 -p cbr -e 1000 -c 2 -i 21 -a 2 -x {4.0 5.0 4 ------- null}
- -t 0.173333333333333 -s 2 -d 5 -p cbr -e 1000 -c 2 -i 21 -a 2 -x {4.0 5.0 4 ------- null}
h -t 0.173333333333333 -s 2 -d 5 -p cbr -e 1000 -c 2 -i 21 -a 2 -x {4.0 5.0 -1 ------- null}
- -t 0.174 -s 1 -d 2 -p cbr -e 1000 -c 1 -i 24 -a 1 -x {0.0 3.0 18 ------- null}
h -t 0.174 -s 1 -d 2 -p cbr -e 1000 -c 1 -i 24 -a 1 -x {0.0 3.0 -1 ------- null}
r -t 0.174 -s 0 -d 1 -p cbr -e 1000 -c 1 -i 28 -a 1 -x {0.0 3.0 20 ------- null}
+ -t 0.174 -s 1 -d 2 -p cbr -e 1000 -c 1 -i 28 -a 1 -x {0.0 3.0 20 ------- null}
+ -t 0.176 -s 0 -d 1 -p cbr -e 1000 -c 1 -i 32 -a 1 -x {0.0 3.0 22 ------- null}
- -t 0.176 -s 0 -d 1 -p cbr -e 1000 -c 1 -i 32 -a 1 -x {0.0 3.0 22 ------- null}
h -t 0.176 -s 0 -d 1 -p cbr -e 1000 -c 1 -i 32 -a 1 -x {0.0 3.0 -1 ------- null}
r -t 0.176666666666667 -s 2 -d 5 -p cbr -e 1000 -c 2 -i 19 -a 2 -x {4.0 5.0 3 ------- null}
r -t 0.178 -s 4 -d 1 -p cbr -e 1000 -c 2 -i 29 -a 2 -x {4.0 5.0 8 ------- null}
+ -t 0.178 -s 1 -d 2 -p cbr -e 1000 -c 2 -i 29 -a 2 -x {4.0 5.0 8 ------- null}
r -t 0.178666666666667 -s 1 -d 2 -p cbr -e 1000 -c 1 -i 22 -a 1 -x {0.0 3.0 17 ------- null}
+ -t 0.178666666666667 -s 2 -d 3 -p cbr -e 1000 -c 1 -i 22 -a 1 -x {0.0 3.0 17 ------- null}
- -t 0.178666666666667 -s 2 -d 3 -p cbr -e 1000 -c 1 -i 22 -a 1 -x {0.0 3.0 17 ------- null}
h -t 0.178666666666667 -s 2 -d 3 -p cbr -e 1000 -c 1 -i 22 -a 1 -x {0.0 3.0 -1 ------- null}
- -t 0.179333333333333 -s 1 -d 2 -p cbr -e 1000 -c 2 -i 25 -a 2 -x {4.0 5.0 6 ------- null}
h -t 0.179333333333333 -s 1 -d 2 -p cbr -e 1000 -c 2 -i 25 -a 2 -x {4.0 5.0 -1 ------- null}
+ -t 0.18 -s 4 -d 1 -p cbr -e 1000 -c 2 -i 33 -a 2 -x {4.0 5.0 10 ------- null}
- -t 0.18 -s 4 -d 1 -p cbr -e 1000 -c 2 -i 33 -a 2 -x {4.0 5.0 10 ------- null}
h -t 0.18 -s 4 -d 1 -p cbr -e 1000 -c 2 -i 33 -a 2 -x {4.0 5.0 -1 ------- null}
r -t 0.182 -s 2 -d 3 -p cbr -e 1000 -c 1 -i 20 -a 1 -x {0.0 3.0 16 ------- null}
r -t 0.182 -s 0 -d 1 -p cbr -e 1000 -c 1 -i 30 -a 1 -x {0.0 3.0 21 ------- null}
+ -t 0.182 -s 1 -d 2 -p cbr -e 1000 -c 1 -i 30 -a 1 -x {0.0 3.0 21 ------- null}
r -t 0.184 -s 1 -d 2 -p cbr -e 1000 -c 2 -i 23 -a 2 -x {4.0 5.0 5 ------- null}
+ -t 0.184 -s 2 -d 5 -p cbr -e 1000 -c 2 -i 23 -a 2 -x {4.0 5.0 5 ------- null}
- -t 0.184 -s 2 -d 5 -p cbr -e 1000 -c 2 -i 23 -a 2 -x {4.0 5.0 5 ------- null}
h -t 0.184 -s 2 -d 5 -p cbr -e 1000 -c 2 -i 23 -a 2 -x {4.0 5.0 -1 ------- null}
+ -t 0.184 -s 0 -d 1 -p cbr -e 1000 -c 1 -i 34 -a 1 -x {0.0 3.0 23 ------- null}
- -t 0.184 -s 0 -d 1 -p cbr -e 1000 -c 1 -i 34 -a 1 -x {0.0 3.0 23 ------- null}
h -t 0.184 -s 0 -d 1 -p cbr -e 1000 -c 1 -i 34 -a 1 -x {0.0 3.0 -1 ------- null}
- -t 0.184666666666667 -s 1 -d 2 -p cbr -e 1000 -c 1 -i 26 -a 1 -x {0.0 3.0 19 ------- null}
h -t 0.184666666666667 -s 1 -d 2 -p cbr -e 1000 -c 1 -i 26 -a 1 -x {0.0 3.0 -1 ------- null}
r -t 0.186 -s 4 -d 1 -p cbr -e 1000 -c 2 -i 31 -a 2 -x {4.0 5.0 9 ------- null}
+ -t 0.186 -s 1 -d 2 -p cbr -e 1000 -c 2 -i 31 -a 2 -x {4.0 5.0 9 ------- null}
r -t 0.187333333333333 -s 2 -d 5 -p cbr -e 1000 -c 2 -i 21 -a 2 -x {4.0 5.0 4 ------- null}
+ -t 0.188 -s 4 -d 1 -p cbr -e 1000 -c 2 -i 35 -a 2 -x {4.0 5.0 11 ------- null}
- -t 0.188 -s 4 -d 1 -p cbr -e 1000 -c 2 -i 35 -a 2 -x {4.0 5.0 11 ------- null}